 vasp.5.4.1 24Jun15 (build May 03 2017 13:41:37) complex                        
  
 executed on           IFC91_ompi date 2020.11.04  19:44:25
 running on   24 total cores
 distrk:  each k-point on   24 cores,    1 groups
 distr:  one band on NCORES_PER_BAND=   6 cores,    4 groups


--------------------------------------------------------------------------------------------------------


 INCAR:
 POTCAR:    PAW_PBE Ni 02Aug2007                  
 POTCAR:    PAW_PBE Br 06Sep2000                  
 POTCAR:    PAW_PBE Ni 02Aug2007                  
   VRHFIN =Ni:                                                                  
   LEXCH  = PE                                                                  
   EATOM  =  1077.6739 eV,   79.2068 Ry                                         
                                                                                
   TITEL  = PAW_PBE Ni 02Aug2007                                                
   LULTRA =        F    use ultrasoft PP ?                                      
   IUNSCR =        1    unscreen: 0-lin 1-nonlin 2-no                           
   RPACOR =    2.000    partial core radius                                     
   POMASS =   58.690; ZVAL   =   10.000    mass and valenz                      
   RCORE  =    2.300    outmost cutoff radius                                   
   RWIGS  =    2.430; RWIGS  =    1.286    wigner-seitz radius (au A)           
   ENMAX  =  269.532; ENMIN  =  202.149 eV                                      
   RCLOC  =    1.201    cutoff for local pot                                    
   LCOR   =        T    correct aug charges                                     
   LPAW   =        T    paw PP                                                  
   EAUG   =  544.565                                                            
   DEXC   =    0.000                                                            
   RMAX   =    2.357    core radius for proj-oper                               
   RAUG   =    1.300    factor for augmentation sphere                          
   RDEP   =    2.390    radius for radial grids                                 
   RDEPT  =    1.838    core radius for aug-charge                              
                                                                                
   Atomic configuration                                                         
    9 entries                                                                   
     n  l   j            E        occ.                                          
     1  0  0.50     -8206.4253   2.0000                                         
     2  0  0.50      -976.1748   2.0000                                         
     2  1  1.50      -839.0571   6.0000                                         
     3  0  0.50      -105.9991   2.0000                                         
     3  1  1.50       -66.4603   6.0000                                         
     3  2  2.50        -4.6458   9.0000                                         
     4  0  0.50        -4.4926   1.0000                                         
     4  1  1.50        -4.0817   0.0000                                         
     4  3  2.50        -1.3606   0.0000                                         
   Description                                                                  
     l       E           TYP  RCUT    TYP  RCUT                                 
     2     -4.6457903     23  2.300                                             
     2     -6.0063729     23  2.300                                             
     0     -4.4925590     23  2.300                                             
     0      5.0102601     23  2.300                                             
     1     -2.7211652     23  2.300                                             
     1     16.5183231     23  2.300                                             
  local pseudopotential read in
  partial core-charges read in
  partial kinetic energy density read in
  atomic valenz-charges read in
  non local Contribution for L=           2  read in
    real space projection operators read in
  non local Contribution for L=           2  read in
    real space projection operators read in
  non local Contribution for L=           0  read in
    real space projection operators read in
  non local Contribution for L=           0  read in
    real space projection operators read in
  non local Contribution for L=           1  read in
    real space projection operators read in
  non local Contribution for L=           1  read in
    real space projection operators read in
    PAW grid and wavefunctions read in
 
   number of l-projection  operators is LMAX  =           6
   number of lm-projection operators is LMMAX =          18
 
 POTCAR:    PAW_PBE Br 06Sep2000                  
   VRHFIN =Br: s2p5                                                             
   LEXCH  = PE                                                                  
   EATOM  =   368.4488 eV,   27.0802 Ry                                         
                                                                                
   TITEL  = PAW_PBE Br 06Sep2000                                                
   LULTRA =        F    use ultrasoft PP ?                                      
   IUNSCR =        1    unscreen: 0-lin 1-nonlin 2-no                           
   RPACOR =    1.900    partial core radius                                     
   POMASS =   79.904; ZVAL   =    7.000    mass and valenz                      
   RCORE  =    2.100    outmost cutoff radius                                   
   RWIGS  =    2.200; RWIGS  =    1.164    wigner-seitz radius (au A)           
   ENMAX  =  216.285; ENMIN  =  162.214 eV                                      
   ICORE  =        3    local potential                                         
   LCOR   =        T    correct aug charges                                     
   LPAW   =        T    paw PP                                                  
   EAUG   =  503.852                                                            
   DEXC   =    0.000                                                            
   RMAX   =    2.139    core radius for proj-oper                               
   RAUG   =    1.300    factor for augmentation sphere                          
   RDEP   =    2.186    radius for radial grids                                 
   RDEPT  =    1.890    core radius for aug-charge                              
                                                                                
   Atomic configuration                                                         
   10 entries                                                                   
     n  l   j            E        occ.                                          
     1  0  0.50    -13316.2796   2.0000                                         
     2  0  0.50     -1732.8239   2.0000                                         
     2  1  1.50     -1528.2193   6.0000                                         
     3  0  0.50      -238.0460   2.0000                                         
     3  1  1.50      -173.4609   6.0000                                         
     3  2  2.50       -66.7132  10.0000                                         
     4  0  0.50       -20.1334   2.0000                                         
     4  1  0.50        -7.8591   5.0000                                         
     4  2  2.50        -8.1635   0.0000                                         
     4  3  2.50        -8.1635   0.0000                                         
   Description                                                                  
     l       E           TYP  RCUT    TYP  RCUT                                 
     0    -20.1333652     23  2.100                                             
     0    -21.4939478     23  2.100                                             
     1     -7.8591052     23  2.100                                             
     1     -3.1608434     23  2.100                                             
     2     -8.1634956     23  2.100                                             
     3     -1.3605826      7  2.100                                             
  local pseudopotential read in
  partial core-charges read in
  partial kinetic energy density read in
  atomic valenz-charges read in
  non local Contribution for L=           0  read in
    real space projection operators read in
  non local Contribution for L=           0  read in
    real space projection operators read in
  non local Contribution for L=           1  read in
    real space projection operators read in
  non local Contribution for L=           1  read in
    real space projection operators read in
  non local Contribution for L=           2  read in
    real space projection operators read in
    PAW grid and wavefunctions read in
 
   number of l-projection  operators is LMAX  =           5
   number of lm-projection operators is LMMAX =          13
 
  PAW_PBE Ni 02Aug2007                  :
 energy of atom  1       EATOM=-1077.6739
 kinetic energy error for atom=    0.0030 (will be added to EATOM!!)
  PAW_PBE Br 06Sep2000                  :
 energy of atom  2       EATOM= -368.4488
 kinetic energy error for atom=    0.0011 (will be added to EATOM!!)
 
 
 POSCAR: NiBr2                                   
  positions in direct lattice
  velocities in cartesian coordinates
 exchange correlation table for  LEXCH =        8
   RHO(1)=    0.500       N(1)  =     2000
   RHO(2)=  100.500       N(2)  =     4000
 


--------------------------------------------------------------------------------------------------------


 ion  position               nearest neighbor table
   1  0.000  0.000  0.500-   2 2.57   3 2.57   3 2.57   2 2.57   3 2.57   2 2.57
   2  0.667  0.333  0.563-   1 2.57   1 2.57   1 2.57
   3  0.333  0.667  0.437-   1 2.57   1 2.57   1 2.57
 
  LATTYP: Found a hexagonal cell.
 ALAT       =     3.7000002360
 C/A-ratio  =     6.1629843003
  
  Lattice vectors:
  
 A1 = (   3.7000000477,   0.0000000000,   0.0000000000)
 A2 = (  -1.8499993587,   3.2042938687,   0.0000000000)
 A3 = (   0.0000000000,   0.0000000000,  22.8030433655)


Analysis of symmetry for initial positions (statically):
=====================================================================
 Subroutine PRICEL returns:
 Original cell was already a primitive cell.
 

 Routine SETGRP: Setting up the symmetry group for a 
 hexagonal supercell.


 Subroutine GETGRP returns: Found 12 space group operations
 (whereof 12 operations were pure point group operations)
 out of a pool of 24 trial point group operations.


The static configuration has the point symmetry D_3d.


Analysis of symmetry for dynamics (positions and initial velocities):
=====================================================================
 Subroutine PRICEL returns:
 Original cell was already a primitive cell.
 

 Routine SETGRP: Setting up the symmetry group for a 
 hexagonal supercell.


 Subroutine GETGRP returns: Found 12 space group operations
 (whereof 12 operations were pure point group operations)
 out of a pool of 24 trial point group operations.


The dynamic configuration has the point symmetry D_3d.


Analysis of structural, dynamic, and magnetic symmetry:
=====================================================================
 Subroutine PRICEL returns:
 Original cell was already a primitive cell.
 

 Routine SETGRP: Setting up the symmetry group for a 
 hexagonal supercell.


 Subroutine GETGRP returns: Found 12 space group operations
 (whereof 12 operations were pure point group operations)
 out of a pool of 24 trial point group operations.


The magnetic configuration has the point symmetry D_3d.


 Subroutine INISYM returns: Found 12 space group operations
 (whereof 12 operations are pure point group operations),
 and found     1 'primitive' translations

 
 
 KPOINTS: K-Mesh Generated with KP-Resolved Value 

Automatic generation of k-mesh.
Space group operators:
 irot       det(A)        alpha          n_x          n_y          n_z        tau_x        tau_y        tau_z
    1     1.000000     0.000000     1.000000     0.000000     0.000000     0.000000     0.000000     0.000000
    2    -1.000000     0.000000     1.000000     0.000000     0.000000     0.000000     0.000000     0.000000
    3     1.000000   120.000000     0.000000     0.000000    -1.000000     0.000000     0.000000     0.000000
    4    -1.000000   120.000000     0.000000     0.000000    -1.000000     0.000000     0.000000     0.000000
    5     1.000000   120.000000     0.000000     0.000000     1.000000     0.000000     0.000000     0.000000
    6    -1.000000   120.000000     0.000000     0.000000     1.000000     0.000000     0.000000     0.000000
    7     1.000000   180.000000     1.000000    -0.000000     0.000000     0.000000     0.000000     0.000000
    8    -1.000000   180.000000     1.000000    -0.000000     0.000000     0.000000     0.000000     0.000000
    9     1.000000   180.000000     0.500000    -0.866025     0.000000     0.000000     0.000000     0.000000
   10    -1.000000   180.000000     0.500000    -0.866025     0.000000     0.000000     0.000000     0.000000
   11     1.000000   180.000000    -0.500000    -0.866025     0.000000     0.000000     0.000000     0.000000
   12    -1.000000   180.000000    -0.500000    -0.866025     0.000000     0.000000     0.000000     0.000000
 
 Subroutine IBZKPT returns following result:
 ===========================================
 
 Found     30 irreducible k-points:
 
 Following reciprocal coordinates:
            Coordinates               Weight
  0.000000  0.000000  0.000000      1.000000
  0.062500  0.000000  0.000000      6.000000
  0.125000  0.000000  0.000000      6.000000
  0.187500  0.000000  0.000000      6.000000
  0.250000  0.000000  0.000000      6.000000
  0.312500  0.000000  0.000000      6.000000
  0.375000  0.000000  0.000000      6.000000
  0.437500 -0.000000  0.000000      6.000000
  0.500000  0.000000  0.000000      3.000000
  0.062500  0.062500  0.000000      6.000000
  0.125000  0.062500  0.000000     12.000000
  0.187500  0.062500  0.000000     12.000000
  0.250000  0.062500  0.000000     12.000000
  0.312500  0.062500  0.000000     12.000000
  0.375000  0.062500  0.000000     12.000000
  0.437500  0.062500  0.000000     12.000000
  0.125000  0.125000  0.000000      6.000000
  0.187500  0.125000  0.000000     12.000000
  0.250000  0.125000  0.000000     12.000000
  0.312500  0.125000  0.000000     12.000000
  0.375000  0.125000  0.000000     12.000000
  0.437500  0.125000  0.000000      6.000000
  0.187500  0.187500  0.000000      6.000000
  0.250000  0.187500  0.000000     12.000000
  0.312500  0.187500  0.000000     12.000000
  0.375000  0.187500  0.000000     12.000000
  0.250000  0.250000  0.000000      6.000000
  0.312500  0.250000  0.000000     12.000000
  0.375000  0.250000  0.000000      6.000000
  0.312500  0.312500  0.000000      6.000000
 
 Following cartesian coordinates:
            Coordinates               Weight
  0.000000  0.000000  0.000000      1.000000
  0.016892  0.009753  0.000000      6.000000
  0.033784  0.019505  0.000000      6.000000
  0.050676  0.029258  0.000000      6.000000
  0.067568  0.039010  0.000000      6.000000
  0.084459  0.048763  0.000000      6.000000
  0.101351  0.058515  0.000000      6.000000
  0.118243  0.068268  0.000000      6.000000
  0.135135  0.078020  0.000000      3.000000
  0.016892  0.029258  0.000000      6.000000
  0.033784  0.039010  0.000000     12.000000
  0.050676  0.048763  0.000000     12.000000
  0.067568  0.058515  0.000000     12.000000
  0.084459  0.068268  0.000000     12.000000
  0.101351  0.078020  0.000000     12.000000
  0.118243  0.087773  0.000000     12.000000
  0.033784  0.058515  0.000000      6.000000
  0.050676  0.068268  0.000000     12.000000
  0.067568  0.078020  0.000000     12.000000
  0.084459  0.087773  0.000000     12.000000
  0.101351  0.097525  0.000000     12.000000
  0.118243  0.107278  0.000000      6.000000
  0.050676  0.087773  0.000000      6.000000
  0.067568  0.097525  0.000000     12.000000
  0.084459  0.107278  0.000000     12.000000
  0.101351  0.117030  0.000000     12.000000
  0.067568  0.117030  0.000000      6.000000
  0.084459  0.126783  0.000000     12.000000
  0.101351  0.136536  0.000000      6.000000
  0.084459  0.146288  0.000000      6.000000
 
 TETIRR: Found    136 inequivalent tetrahedra from     1536


--------------------------------------------------------------------------------------------------------




 Dimension of arrays:
   k-points           NKPTS =     30   k-points in BZ     NKDIM =     30   number of bands    NBANDS=     20
   number of dos      NEDOS =   2000   number of ions     NIONS =      3
   non local maximal  LDIM  =      6   non local SUM 2l+1 LMDIM =     18
   total plane-waves  NPLWV =  50400
   max r-space proj   IRMAX =      1   max aug-charges    IRDMAX=   6989
   dimension x,y,z NGX =    20 NGY =   20 NGZ =  126
   dimension x,y,z NGXF=    40 NGYF=   40 NGZF=  252
   support grid    NGXF=    40 NGYF=   40 NGZF=  252
   ions per type =               1   2
 NGX,Y,Z   is equivalent  to a cutoff of   8.99,  8.99,  9.19 a.u.
 NGXF,Y,Z  is equivalent  to a cutoff of  17.97, 17.97, 18.37 a.u.


 I would recommend the setting:
   dimension x,y,z NGX =    20 NGY =   20 NGZ =  125
 SYSTEM =  unknown system                          
 POSCAR =  NiBr2                                   

 Startparameter for this run:
   NWRITE =      2    write-flag & timer
   PREC   = normal    normal or accurate (medium, high low for compatibility)
   ISTART =      0    job   : 0-new  1-cont  2-samecut
   ICHARG =     11    charge: 1-file 2-atom 10-const
   ISPIN  =      2    spin polarized calculation?
   LNONCOLLINEAR =      F non collinear calculations
   LSORBIT =      F    spin-orbit coupling
   INIWAV =      1    electr: 0-lowe 1-rand  2-diag
   LASPH  =      F    aspherical Exc in radial PAW
   METAGGA=      F    non-selfconsistent MetaGGA calc.

 Electronic Relaxation 1
   ENCUT  =  500.0 eV  36.75 Ry    6.06 a.u.   6.75  6.75 41.58*2*pi/ulx,y,z
   ENINI  =  500.0     initial cutoff
   ENAUG  =  544.6 eV  augmentation charge cutoff
   NELM   =    300;   NELMIN=  2; NELMDL= -5     # of ELM steps 
   EDIFF  = 0.1E-05   stopping-criterion for ELM
   LREAL  =      F    real-space projection
   NLSPLINE    = F    spline interpolate recip. space projectors
   LCOMPAT=      F    compatible to vasp.4.4
   GGA_COMPAT  = T    GGA compatible to vasp.4.4-vasp.4.6
   LMAXPAW     = -100 max onsite density
   LMAXMIX     =    4 max onsite mixed and CHGCAR
   VOSKOWN=      0    Vosko Wilk Nusair interpolation
   ROPT   =    0.00000   0.00000
 Ionic relaxation
   EDIFFG = 0.1E-04   stopping-criterion for IOM
   NSW    =      0    number of steps for IOM
   NBLOCK =      1;   KBLOCK =      1    inner block; outer block 
   IBRION =     -1    ionic relax: 0-MD 1-quasi-New 2-CG
   NFREE  =      0    steps in history (QN), initial steepest desc. (CG)
   ISIF   =      2    stress and relaxation
   IWAVPR =     10    prediction:  0-non 1-charg 2-wave 3-comb
   ISYM   =      2    0-nonsym 1-usesym 2-fastsym
   LCORR  =      T    Harris-Foulkes like correction to forces

   POTIM  = 0.5000    time-step for ionic-motion
   TEIN   =    0.0    initial temperature
   TEBEG  =    0.0;   TEEND  =   0.0 temperature during run
   SMASS  =  -3.00    Nose mass-parameter (am)
   estimated Nose-frequenzy (Omega)   =  0.10E-29 period in steps =****** mass=  -0.313E-27a.u.
   SCALEE = 1.0000    scale energy and forces
   NPACO  =    256;   APACO  = 16.0  distance and # of slots for P.C.
   PSTRESS=    0.0 pullay stress

  Mass of Ions in am
   POMASS =  58.69 79.90
  Ionic Valenz
   ZVAL   =  10.00  7.00
  Atomic Wigner-Seitz radii
   RWIGS  =  -1.00 -1.00
  virtual crystal weights 
   VCA    =   1.00  1.00
   NELECT =      24.0000    total number of electrons
   NUPDOWN=      -1.0000    fix difference up-down

 DOS related values:
   EMIN   =  10.00;   EMAX   =-10.00  energy-range for DOS
   EFERMI =   0.00
   ISMEAR =    -5;   SIGMA  =   0.20  broadening in eV -4-tet -1-fermi 0-gaus

 Electronic relaxation 2 (details)
   IALGO  =     38    algorithm
   LDIAG  =      T    sub-space diagonalisation (order eigenvalues)
   LSUBROT=      F    optimize rotation matrix (better conditioning)
   TURBO    =      0    0=normal 1=particle mesh
   IRESTART =      0    0=no restart 2=restart with 2 vectors
   NREBOOT  =      0    no. of reboots
   NMIN     =      0    reboot dimension
   EREF     =   0.00    reference energy to select bands
   IMIX   =      4    mixing-type and parameters
     AMIX     =   0.40;   BMIX     =  1.00
     AMIX_MAG =   1.60;   BMIX_MAG =  1.00
     AMIN     =   0.10
     WC   =   100.;   INIMIX=   1;  MIXPRE=   1;  MAXMIX= -45

 Intra band minimization:
   WEIMIN = 0.0000     energy-eigenvalue tresh-hold
   EBREAK =  0.12E-07  absolut break condition
   DEPER  =   0.30     relativ break condition  

   TIME   =   0.40     timestep for ELM

  volume/ion in A,a.u.               =      90.12       608.14
  Fermi-wavevector in a.u.,A,eV,Ry     =   0.730303  1.380072  7.256560  0.533342
  Thomas-Fermi vector in A             =   1.822239
 
 Write flags
   LWAVE  =      F    write WAVECAR
   LCHARG =      F    write CHGCAR
   LVTOT  =      F    write LOCPOT, total local potential
   LVHAR  =      F    write LOCPOT, Hartree potential only
   LELF   =      F    write electronic localiz. function (ELF)
   LORBIT =     11    0 simple, 1 ext, 2 COOP (PROOUT)


 Dipole corrections
   LMONO  =      F    monopole corrections only (constant potential shift)
   LDIPOL =      F    correct potential (dipole corrections)
   IDIPOL =      0    1-x, 2-y, 3-z, 4-all directions 
   EPSILON=  1.0000000 bulk dielectric constant

 LDA+U is selected, type is set to LDAUTYPE =  2
   angular momentum for each species LDAUL =     2   -1
   U (eV)           for each species LDAUU =   4.0  0.0
   J (eV)           for each species LDAUJ =   0.0  0.0
 Exchange correlation treatment:
   GGA     =    --    GGA type
   LEXCH   =     8    internal setting for exchange type
   VOSKOWN=      0    Vosko Wilk Nusair interpolation
   LHFCALC =     F    Hartree Fock is set to
   LHFONE  =     F    Hartree Fock one center treatment
   AEXX    =    0.0000 exact exchange contribution

 Linear response parameters
   LEPSILON=     F    determine dielectric tensor
   LRPA    =     F    only Hartree local field effects (RPA)
   LNABLA  =     F    use nabla operator in PAW spheres
   LVEL    =     F    velocity operator in full k-point grid
   LINTERFAST=   F  fast interpolation
   KINTER  =     0    interpolate to denser k-point grid
   CSHIFT  =0.1000    complex shift for real part using Kramers Kronig
   OMEGAMAX=  -1.0    maximum frequency
   DEG_THRESHOLD= 0.2000000E-02 threshold for treating states as degnerate
   RTIME   =    0.100 relaxation time in fs

 Orbital magnetization related:
   ORBITALMAG=     F  switch on orbital magnetization
   LCHIMAG   =     F  perturbation theory with respect to B field
   DQ        =  0.001000  dq finite difference perturbation B field



--------------------------------------------------------------------------------------------------------


 Static calculation
 charge density and potential remain constant during run
 spin polarized calculation
 Variant of blocked Davidson
 Davidson routine will perform the subspace rotation
 perform sub-space diagonalisation
    after iterative eigenvector-optimisation
 no mixing
 using additional bands            8
 reciprocal scheme for non local part
 use partial core corrections
 calculate Harris-corrections to forces 
   (improved forces if not selfconsistent)
 use gradient corrections 
 WARNING: stress and forces are not correct
  (second derivative of E(xc) not defined)
 use of overlap-Matrix (Vanderbilt PP)
 Fermi weights with tetrahedron method with Bloechl corrections


--------------------------------------------------------------------------------------------------------


  energy-cutoff  :      500.00
  volume of cell :      270.35
      direct lattice vectors                 reciprocal lattice vectors
     3.700000048  0.000000000  0.000000000     0.270270267  0.156040563  0.000000000
    -1.849999359  3.204293869  0.000000000     0.000000000  0.312081239  0.000000000
     0.000000000  0.000000000 22.803043365     0.000000000  0.000000000  0.043853795

  length of vectors
     3.700000048  3.699999571 22.803043365     0.312081199  0.312081239  0.043853795


 
 k-points in units of 2pi/SCALE and weight: K-Mesh Generated with KP-Resolved Value 
   0.00000000  0.00000000  0.00000000       0.004
   0.01689189  0.00975254  0.00000000       0.023
   0.03378378  0.01950507  0.00000000       0.023
   0.05067568  0.02925761  0.00000000       0.023
   0.06756757  0.03901014  0.00000000       0.023
   0.08445946  0.04876268  0.00000000       0.023
   0.10135135  0.05851521  0.00000000       0.023
   0.11824324  0.06826775  0.00000000       0.023
   0.13513513  0.07802028  0.00000000       0.012
   0.01689189  0.02925761  0.00000000       0.023
   0.03378378  0.03901015  0.00000000       0.047
   0.05067568  0.04876268  0.00000000       0.047
   0.06756757  0.05851522  0.00000000       0.047
   0.08445946  0.06826775  0.00000000       0.047
   0.10135135  0.07802029  0.00000000       0.047
   0.11824324  0.08777282  0.00000000       0.047
   0.03378378  0.05851523  0.00000000       0.023
   0.05067568  0.06826776  0.00000000       0.047
   0.06756757  0.07802030  0.00000000       0.047
   0.08445946  0.08777283  0.00000000       0.047
   0.10135135  0.09752537  0.00000000       0.047
   0.11824324  0.10727790  0.00000000       0.023
   0.05067568  0.08777284  0.00000000       0.023
   0.06756757  0.09752537  0.00000000       0.047
   0.08445946  0.10727791  0.00000000       0.047
   0.10135135  0.11703044  0.00000000       0.047
   0.06756757  0.11703045  0.00000000       0.023
   0.08445946  0.12678299  0.00000000       0.047
   0.10135135  0.13653552  0.00000000       0.023
   0.08445946  0.14628806  0.00000000       0.023
 
 k-points in reciprocal lattice and weights: K-Mesh Generated with KP-Resolved Value 
   0.00000000  0.00000000  0.00000000       0.004
   0.06250000  0.00000000  0.00000000       0.023
   0.12500000  0.00000000  0.00000000       0.023
   0.18750000  0.00000000  0.00000000       0.023
   0.25000000  0.00000000  0.00000000       0.023
   0.31250000  0.00000000  0.00000000       0.023
   0.37500000  0.00000000  0.00000000       0.023
   0.43750000 -0.00000000  0.00000000       0.023
   0.50000000  0.00000000  0.00000000       0.012
   0.06250000  0.06250000  0.00000000       0.023
   0.12500000  0.06250000  0.00000000       0.047
   0.18750000  0.06250000  0.00000000       0.047
   0.25000000  0.06250000  0.00000000       0.047
   0.31250000  0.06250000  0.00000000       0.047
   0.37500000  0.06250000  0.00000000       0.047
   0.43750000  0.06250000  0.00000000       0.047
   0.12500000  0.12500000  0.00000000       0.023
   0.18750000  0.12500000  0.00000000       0.047
   0.25000000  0.12500000  0.00000000       0.047
   0.31250000  0.12500000  0.00000000       0.047
   0.37500000  0.12500000  0.00000000       0.047
   0.43750000  0.12500000  0.00000000       0.023
   0.18750000  0.18750000  0.00000000       0.023
   0.25000000  0.18750000  0.00000000       0.047
   0.31250000  0.18750000  0.00000000       0.047
   0.37500000  0.18750000  0.00000000       0.047
   0.25000000  0.25000000  0.00000000       0.023
   0.31250000  0.25000000  0.00000000       0.047
   0.37500000  0.25000000  0.00000000       0.023
   0.31250000  0.31250000  0.00000000       0.023
 
 position of ions in fractional coordinates (direct lattice) 
   0.00000000  0.00000000  0.50000000
   0.66666597  0.33333299  0.56260310
   0.33333397  0.66666698  0.43739690
 
 position of ions in cartesian coordinates  (Angst):
   0.00000000  0.00000000 11.40152168
   1.84999831  1.06809684 12.82906290
   0.00000221  2.13619693  9.97398047
 


--------------------------------------------------------------------------------------------------------


 k-point  1 :   0.0000 0.0000 0.0000  plane waves:    6875
 k-point  2 :   0.0625 0.0000 0.0000  plane waves:    6877
 k-point  3 :   0.1250 0.0000 0.0000  plane waves:    6867
 k-point  4 :   0.1875 0.0000 0.0000  plane waves:    6866
 k-point  5 :   0.2500 0.0000 0.0000  plane waves:    6856
 k-point  6 :   0.3125 0.0000 0.0000  plane waves:    6854
 k-point  7 :   0.3750 0.0000 0.0000  plane waves:    6872
 k-point  8 :   0.4375-0.0000 0.0000  plane waves:    6882
 k-point  9 :   0.5000 0.0000 0.0000  plane waves:    6878
 k-point 10 :   0.0625 0.0625 0.0000  plane waves:    6881
 k-point 11 :   0.1250 0.0625 0.0000  plane waves:    6861
 k-point 12 :   0.1875 0.0625 0.0000  plane waves:    6858
 k-point 13 :   0.2500 0.0625 0.0000  plane waves:    6860
 k-point 14 :   0.3125 0.0625 0.0000  plane waves:    6865
 k-point 15 :   0.3750 0.0625 0.0000  plane waves:    6871
 k-point 16 :   0.4375 0.0625 0.0000  plane waves:    6883
 k-point 17 :   0.1250 0.1250 0.0000  plane waves:    6859
 k-point 18 :   0.1875 0.1250 0.0000  plane waves:    6865
 k-point 19 :   0.2500 0.1250 0.0000  plane waves:    6846
 k-point 20 :   0.3125 0.1250 0.0000  plane waves:    6859
 k-point 21 :   0.3750 0.1250 0.0000  plane waves:    6861
 k-point 22 :   0.4375 0.1250 0.0000  plane waves:    6872
 k-point 23 :   0.1875 0.1875 0.0000  plane waves:    6859
 k-point 24 :   0.2500 0.1875 0.0000  plane waves:    6845
 k-point 25 :   0.3125 0.1875 0.0000  plane waves:    6854
 k-point 26 :   0.3750 0.1875 0.0000  plane waves:    6877
 k-point 27 :   0.2500 0.2500 0.0000  plane waves:    6857
 k-point 28 :   0.3125 0.2500 0.0000  plane waves:    6864
 k-point 29 :   0.3750 0.2500 0.0000  plane waves:    6864
 k-point 30 :   0.3125 0.3125 0.0000  plane waves:    6877

 maximum and minimum number of plane-waves per node :      1161     1121

 maximum number of plane-waves:      6883
 maximum index in each direction: 
   IXMAX=    6   IYMAX=    6   IZMAX=   41
   IXMIN=   -7   IYMIN=   -7   IZMIN=  -41

 WARNING: aliasing errors must be expected set NGX to  28 to avoid them
 WARNING: aliasing errors must be expected set NGY to  28 to avoid them
 WARNING: aliasing errors must be expected set NGZ to 166 to avoid them
 aliasing errors are usually negligible using standard VASP settings
 and one can safely disregard these warnings

 parallel 3D FFT for wavefunctions:
    minimum data exchange during FFTs selected (reduces bandwidth)
 parallel 3D FFT for charge:
    minimum data exchange during FFTs selected (reduces bandwidth)


 total amount of memory used by VASP on root node    49215. kBytes
========================================================================

   base      :      30000. kBytes
   nonl-proj :      10112. kBytes
   fftplans  :        957. kBytes
   grid      :       2432. kBytes
   one-center:         31. kBytes
   wavefun   :       5683. kBytes
 
     INWAV:  cpu time    0.0000: real time    0.0003
 initial charge density was supplied:
 number of electron      24.0000026 magnetization       2.0000046
 keeping initial charge density in first step


--------------------------------------------------------------------------------------------------------


 Maximum index for augmentation-charges          370 (set IRDMAX)


--------------------------------------------------------------------------------------------------------


 First call to EWALD:  gamma=   0.274
 Maximum number of real-space cells 5x 5x 1
 Maximum number of reciprocal cells 2x 2x 8

 FEWALD executed in parallel
    FEWALD:  cpu time    0.0015: real time    0.0015


----------------------------------------- Iteration    1(   1)  ---------------------------------------


    POTLOK:  cpu time    0.0262: real time    0.0263
    SETDIJ:  cpu time    0.0059: real time    0.0059
atom =   1  type =  1  l = 2
 
 onsite density matrix
 
spin component  1
 
  0.9753 -0.0000 -0.0000  0.0150  0.0000
 -0.0000  0.9850 -0.0000  0.0000  0.0150
 -0.0000 -0.0000  0.9651 -0.0000 -0.0000
  0.0150  0.0000 -0.0000  0.9850  0.0000
  0.0000  0.0150 -0.0000  0.0000  0.9753
 
spin component  2
 
  0.7142  0.0000 -0.0000 -0.3457  0.0000
  0.0000  0.4718  0.0000  0.0000 -0.3457
 -0.0000  0.0000  0.9602  0.0000 -0.0000
 -0.3457  0.0000  0.0000  0.4718 -0.0000
  0.0000 -0.3457 -0.0000 -0.0000  0.7142
 
 occupancies and eigenvectors
 
  o =  0.2267  v =  0.0000  0.0000  0.0000  0.0000  0.0000 -0.3559  0.6431 -0.0000 -0.5019  0.4560      0.0000  0.0000  0.0000  0.0000  0.0000  0.0000  0.0000  0.0000  0.0000  0.0000
  o =  0.2267  v =  0.0000  0.0000  0.0000  0.0000  0.0000  0.4560  0.5019  0.0000  0.6431  0.3559      0.0000  0.0000  0.0000  0.0000  0.0000  0.0000  0.0000  0.0000  0.0000  0.0000
  o =  0.9594  v =  0.0000  0.0000  0.0000  0.0000  0.0000 -0.5020 -0.4559 -0.0001  0.3559  0.6430      0.0000  0.0000  0.0000  0.0000  0.0000  0.0000  0.0000  0.0000  0.0000  0.0000
  o =  0.9594  v =  0.0000  0.0000  0.0000  0.0000  0.0000  0.6430 -0.3559  0.0002 -0.4559  0.5020      0.0000  0.0000  0.0000  0.0000  0.0000  0.0000  0.0000  0.0000  0.0000  0.0000
  o =  0.9602  v =  0.0000  0.0000  0.0000  0.0000  0.0000 -0.0002  0.0000  1.0000  0.0001 -0.0000      0.0000  0.0000  0.0000  0.0000  0.0000  0.0000  0.0000  0.0000  0.0000  0.0000
  o =  0.9644  v = -0.4972 -0.4644 -0.0001  0.3625  0.6369  0.0000  0.0000  0.0000  0.0000  0.0000      0.0000  0.0000  0.0000  0.0000  0.0000  0.0000  0.0000  0.0000  0.0000  0.0000
  o =  0.9644  v =  0.6369 -0.3625  0.0002 -0.4644  0.4972  0.0000  0.0000  0.0000  0.0000  0.0000      0.0000  0.0000  0.0000  0.0000  0.0000  0.0000  0.0000  0.0000  0.0000  0.0000
  o =  0.9651  v =  0.0002 -0.0000 -1.0000 -0.0002  0.0001  0.0000  0.0000  0.0000  0.0000  0.0000      0.0000  0.0000  0.0000  0.0000  0.0000  0.0000  0.0000  0.0000  0.0000  0.0000
  o =  0.9959  v =  0.3625 -0.6370 -0.0000  0.4971 -0.4645  0.0000  0.0000  0.0000  0.0000  0.0000      0.0000  0.0000  0.0000  0.0000  0.0000  0.0000  0.0000  0.0000  0.0000  0.0000
  o =  0.9959  v = -0.4645 -0.4971  0.0000 -0.6370 -0.3625  0.0000  0.0000  0.0000  0.0000  0.0000      0.0000  0.0000  0.0000  0.0000  0.0000  0.0000  0.0000  0.0000  0.0000  0.0000
     EDDAV:  cpu time    0.5967: real time    0.5978
 BZINTS: Fermi energy:  6.055386; 24.000000 electrons
         Band energy: -34.815010;  BLOECHL correction: -0.122168
       DOS:  cpu time    0.0102: real time    0.0102
    --------------------------------------------
      LOOP:  cpu time    0.6441: real time    0.6452

 eigenvalue-minimisations  :  2400
 total energy-change (2. order) : 0.1706518E+03  (-0.8161053E+03)
 number of electron      24.0000026 magnetization       2.0000046
 augmentation part       24.0000026 magnetization       2.0000046

 Free energy of the ion-electron system (eV)
  ---------------------------------------------------
  alpha Z        PSCENC =        16.10253336
  Ewald energy   TEWEN  =      4275.56302236
  -Hartree energ DENC   =     -5911.00686545
  -exchange      EXHF   =         0.00000000
  -V(xc)+E(xc)   XCENC  =        50.94570646
  PAW double counting   =      1868.63994431    -1909.34378768
  entropy T*S    EENTRO =         0.00000000
  eigenvalues    EBANDS =       -34.81500972
  atomic energy  EATOM  =      1814.56626534
  Solvation  Ediel_sol  =         0.00000000
  ---------------------------------------------------
  free energy    TOTEN  =       170.65180899 eV

  energy without entropy =      170.65180899  energy(sigma->0) =      170.65180899


--------------------------------------------------------------------------------------------------------




----------------------------------------- Iteration    1(   2)  ---------------------------------------


     EDDAV:  cpu time    0.7886: real time    0.7886
 BZINTS: Fermi energy: -2.097621; 24.000000 electrons
         Band energy:-192.017858;  BLOECHL correction: -0.011624
       DOS:  cpu time    0.0085: real time    0.0085
    --------------------------------------------
      LOOP:  cpu time    0.7978: real time    0.7991

 eigenvalue-minimisations  :  3528
 total energy-change (2. order) :-0.1572028E+03  (-0.1528960E+03)
 number of electron      24.0000026 magnetization       2.0000046
 augmentation part       24.0000026 magnetization       2.0000046

 Free energy of the ion-electron system (eV)
  ---------------------------------------------------
  alpha Z        PSCENC =        16.10253336
  Ewald energy   TEWEN  =      4275.56302236
  -Hartree energ DENC   =     -5911.00686545
  -exchange      EXHF   =         0.00000000
  -V(xc)+E(xc)   XCENC  =        50.94570646
  PAW double counting   =      1868.63994431    -1909.34378768
  entropy T*S    EENTRO =         0.00000000
  eigenvalues    EBANDS =      -192.01785765
  atomic energy  EATOM  =      1814.56626534
  Solvation  Ediel_sol  =         0.00000000
  ---------------------------------------------------
  free energy    TOTEN  =        13.44896106 eV

  energy without entropy =       13.44896106  energy(sigma->0) =       13.44896106


--------------------------------------------------------------------------------------------------------




----------------------------------------- Iteration    1(   3)  ---------------------------------------


     EDDAV:  cpu time    0.6657: real time    0.6658
 BZINTS: Fermi energy: -4.406190; 24.000000 electrons
         Band energy:-213.386914;  BLOECHL correction:  0.000000
       DOS:  cpu time    0.0030: real time    0.0030
    --------------------------------------------
      LOOP:  cpu time    0.6693: real time    0.6707

 eigenvalue-minimisations  :  2860
 total energy-change (2. order) :-0.2136906E+02  (-0.2117900E+02)
 number of electron      24.0000026 magnetization       2.0000046
 augmentation part       24.0000026 magnetization       2.0000046

 Free energy of the ion-electron system (eV)
  ---------------------------------------------------
  alpha Z        PSCENC =        16.10253336
  Ewald energy   TEWEN  =      4275.56302236
  -Hartree energ DENC   =     -5911.00686545
  -exchange      EXHF   =         0.00000000
  -V(xc)+E(xc)   XCENC  =        50.94570646
  PAW double counting   =      1868.63994431    -1909.34378768
  entropy T*S    EENTRO =         0.00000000
  eigenvalues    EBANDS =      -213.38691375
  atomic energy  EATOM  =      1814.56626534
  Solvation  Ediel_sol  =         0.00000000
  ---------------------------------------------------
  free energy    TOTEN  =        -7.92009504 eV

  energy without entropy =       -7.92009504  energy(sigma->0) =       -7.92009504


--------------------------------------------------------------------------------------------------------




----------------------------------------- Iteration    1(   4)  ---------------------------------------


     EDDAV:  cpu time    0.7080: real time    0.7081
 BZINTS: Fermi energy: -4.463219; 24.000000 electrons
         Band energy:-213.928824;  BLOECHL correction:  0.000000
       DOS:  cpu time    0.0027: real time    0.0027
    --------------------------------------------
      LOOP:  cpu time    0.7111: real time    0.7126

 eigenvalue-minimisations  :  3084
 total energy-change (2. order) :-0.5419101E+00  (-0.5414914E+00)
 number of electron      24.0000026 magnetization       2.0000046
 augmentation part       24.0000026 magnetization       2.0000046

 Free energy of the ion-electron system (eV)
  ---------------------------------------------------
  alpha Z        PSCENC =        16.10253336
  Ewald energy   TEWEN  =      4275.56302236
  -Hartree energ DENC   =     -5911.00686545
  -exchange      EXHF   =         0.00000000
  -V(xc)+E(xc)   XCENC  =        50.94570646
  PAW double counting   =      1868.63994431    -1909.34378768
  entropy T*S    EENTRO =         0.00000000
  eigenvalues    EBANDS =      -213.92882386
  atomic energy  EATOM  =      1814.56626534
  Solvation  Ediel_sol  =         0.00000000
  ---------------------------------------------------
  free energy    TOTEN  =        -8.46200514 eV

  energy without entropy =       -8.46200514  energy(sigma->0) =       -8.46200514


--------------------------------------------------------------------------------------------------------




----------------------------------------- Iteration    1(   5)  ---------------------------------------


     EDDAV:  cpu time    0.7434: real time    0.7435
 BZINTS: Fermi energy: -4.453022; 24.000000 electrons
         Band energy:-213.936464;  BLOECHL correction:  0.000000
       DOS:  cpu time    0.0029: real time    0.0029
    --------------------------------------------
      LOOP:  cpu time    0.7468: real time    0.7482

 eigenvalue-minimisations  :  3304
 total energy-change (2. order) :-0.7639967E-02  (-0.7639597E-02)
 number of electron      24.0000026 magnetization       2.0000046
 augmentation part       24.0000026 magnetization       2.0000046

 Free energy of the ion-electron system (eV)
  ---------------------------------------------------
  alpha Z        PSCENC =        16.10253336
  Ewald energy   TEWEN  =      4275.56302236
  -Hartree energ DENC   =     -5911.00686545
  -exchange      EXHF   =         0.00000000
  -V(xc)+E(xc)   XCENC  =        50.94570646
  PAW double counting   =      1868.63994431    -1909.34378768
  entropy T*S    EENTRO =         0.00000000
  eigenvalues    EBANDS =      -213.93646382
  atomic energy  EATOM  =      1814.56626534
  Solvation  Ediel_sol  =         0.00000000
  ---------------------------------------------------
  free energy    TOTEN  =        -8.46964511 eV

  energy without entropy =       -8.46964511  energy(sigma->0) =       -8.46964511


--------------------------------------------------------------------------------------------------------




----------------------------------------- Iteration    1(   6)  ---------------------------------------


     EDDAV:  cpu time    0.7193: real time    0.7194
 BZINTS: Fermi energy: -4.463280; 24.000000 electrons
         Band energy:-213.936630;  BLOECHL correction:  0.000000
       DOS:  cpu time    0.0027: real time    0.0027
    --------------------------------------------
      LOOP:  cpu time    0.7224: real time    0.7238

 eigenvalue-minimisations  :  3168
 total energy-change (2. order) :-0.1660483E-03  (-0.1660466E-03)
 number of electron      24.0000026 magnetization       2.0000046
 augmentation part       24.0000026 magnetization       2.0000046

 Free energy of the ion-electron system (eV)
  ---------------------------------------------------
  alpha Z        PSCENC =        16.10253336
  Ewald energy   TEWEN  =      4275.56302236
  -Hartree energ DENC   =     -5911.00686545
  -exchange      EXHF   =         0.00000000
  -V(xc)+E(xc)   XCENC  =        50.94570646
  PAW double counting   =      1868.63994431    -1909.34378768
  entropy T*S    EENTRO =         0.00000000
  eigenvalues    EBANDS =      -213.93662987
  atomic energy  EATOM  =      1814.56626534
  Solvation  Ediel_sol  =         0.00000000
  ---------------------------------------------------
  free energy    TOTEN  =        -8.46981116 eV

  energy without entropy =       -8.46981116  energy(sigma->0) =       -8.46981116


--------------------------------------------------------------------------------------------------------




----------------------------------------- Iteration    1(   7)  ---------------------------------------


     EDDAV:  cpu time    0.7904: real time    0.7905
 BZINTS: Fermi energy: -4.454555; 24.000000 electrons
         Band energy:-213.936642;  BLOECHL correction:  0.000000
       DOS:  cpu time    0.0030: real time    0.0030
    --------------------------------------------
      LOOP:  cpu time    0.7938: real time    0.7951

 eigenvalue-minimisations  :  3580
 total energy-change (2. order) :-0.1225333E-04  (-0.1225329E-04)
 number of electron      24.0000026 magnetization       2.0000046
 augmentation part       24.0000026 magnetization       2.0000046

 Free energy of the ion-electron system (eV)
  ---------------------------------------------------
  alpha Z        PSCENC =        16.10253336
  Ewald energy   TEWEN  =      4275.56302236
  -Hartree energ DENC   =     -5911.00686545
  -exchange      EXHF   =         0.00000000
  -V(xc)+E(xc)   XCENC  =        50.94570646
  PAW double counting   =      1868.63994431    -1909.34378768
  entropy T*S    EENTRO =         0.00000000
  eigenvalues    EBANDS =      -213.93664212
  atomic energy  EATOM  =      1814.56626534
  Solvation  Ediel_sol  =         0.00000000
  ---------------------------------------------------
  free energy    TOTEN  =        -8.46982341 eV

  energy without entropy =       -8.46982341  energy(sigma->0) =       -8.46982341


--------------------------------------------------------------------------------------------------------




----------------------------------------- Iteration    1(   8)  ---------------------------------------


     EDDAV:  cpu time    0.6454: real time    0.6455
 BZINTS: Fermi energy: -4.464948; 24.000000 electrons
         Band energy:-213.936642;  BLOECHL correction:  0.000000
       DOS:  cpu time    0.0025: real time    0.0025
    --------------------------------------------
      LOOP:  cpu time    0.6483: real time    0.6496

 eigenvalue-minimisations  :  2676
 total energy-change (2. order) :-0.3550031E-07  (-0.3550838E-07)
 number of electron      24.0000026 magnetization       2.0000046
 augmentation part       24.0000026 magnetization       2.0000046

 Free energy of the ion-electron system (eV)
  ---------------------------------------------------
  alpha Z        PSCENC =        16.10253336
  Ewald energy   TEWEN  =      4275.56302236
  -Hartree energ DENC   =     -5911.00686545
  -exchange      EXHF   =         0.00000000
  -V(xc)+E(xc)   XCENC  =        50.94570646
  PAW double counting   =      1868.63994431    -1909.34378768
  entropy T*S    EENTRO =         0.00000000
  eigenvalues    EBANDS =      -213.93664216
  atomic energy  EATOM  =      1814.56626534
  Solvation  Ediel_sol  =         0.00000000
  ---------------------------------------------------
  free energy    TOTEN  =        -8.46982345 eV

  energy without entropy =       -8.46982345  energy(sigma->0) =       -8.46982345


--------------------------------------------------------------------------------------------------------




 average (electrostatic) potential at core
  the test charge radii are     0.9791  1.0178
  (the norm of the test charge is              1.0000)
       1 -95.6276       2 -69.0522       3 -69.0522
 
 
 
 E-fermi :  -4.4649     XC(G=0):  -2.8375     alpha+bet : -2.2135


 spin component 1

 k-point     1 :       0.0000    0.0000    0.0000
  band No.  band energies     occupation 
      1     -19.0916      1.00000
      2     -18.3766      1.00000
      3      -9.4806      1.00000
      4      -9.4806      1.00000
      5      -8.9818      1.00000
      6      -8.0512      1.00000
      7      -8.0512      1.00000
      8      -7.1919      1.00000
      9      -5.5762      1.00000
     10      -4.9807      1.00000
     11      -4.9807      1.00000
     12      -4.4651      1.00000
     13      -4.4651      1.00000
     14       0.0728      0.00000
     15       1.4359      0.00000
     16       1.9394      0.00000
     17       2.0862      0.00000
     18       2.6391      0.00000
     19       3.1949      0.00000
     20       4.1931      0.00000

 k-point     2 :       0.0625    0.0000    0.0000
  band No.  band energies     occupation 
      1     -19.0678      1.00000
      2     -18.3670      1.00000
      3      -9.4821      1.00000
      4      -9.4765      1.00000
      5      -8.9532      1.00000
      6      -8.0654      1.00000
      7      -8.0513      1.00000
      8      -7.2130      1.00000
      9      -5.5505      1.00000
     10      -5.1511      1.00000
     11      -5.0323      1.00000
     12      -4.6002      1.00000
     13      -4.4721      1.00000
     14       0.2418      0.00000
     15       1.6059      0.00000
     16       2.0168      0.00000
     17       2.1366      0.00000
     18       2.6796      0.00000
     19       3.2421      0.00000
     20       3.9914      0.00000

 k-point     3 :       0.1250    0.0000    0.0000
  band No.  band energies     occupation 
      1     -18.9986      1.00000
      2     -18.3398      1.00000
      3      -9.4831      1.00000
      4      -9.4653      1.00000
      5      -8.8710      1.00000
      6      -8.1126      1.00000
      7      -8.0497      1.00000
      8      -7.2812      1.00000
      9      -5.6136      1.00000
     10      -5.4228      1.00000
     11      -5.1758      1.00000
     12      -4.9550      1.00000
     13      -4.4924      1.00000
     14       0.6568      0.00000
     15       1.9008      0.00000
     16       2.2282      0.00000
     17       2.3525      0.00000
     18       2.7833      0.00000
     19       3.3789      0.00000
     20       3.7619      0.00000

 k-point     4 :       0.1875    0.0000    0.0000
  band No.  band energies     occupation 
      1     -18.8907      1.00000
      2     -18.2998      1.00000
      3      -9.4739      1.00000
      4      -9.4500      1.00000
      5      -8.7500      1.00000
      6      -8.2085      1.00000
      7      -8.0416      1.00000
      8      -7.4010      1.00000
      9      -6.0724      1.00000
     10      -5.4344      1.00000
     11      -5.3835      1.00000
     12      -5.2993      1.00000
     13      -4.5233      1.00000
     14       1.1109      0.00000
     15       1.9756      0.00000
     16       2.3237      0.00000
     17       2.7687      0.00000
     18       3.0899      0.00000
     19       3.5959      0.00000
     20       3.9329      0.00000

 k-point     5 :       0.2500    0.0000    0.0000
  band No.  band energies     occupation 
      1     -18.7549      1.00000
      2     -18.2546      1.00000
      3      -9.4421      1.00000
      4      -9.4345      1.00000
      5      -8.6506      1.00000
      6      -8.3463      1.00000
      7      -8.0218      1.00000
      8      -7.5413      1.00000
      9      -6.5324      1.00000
     10      -5.8264      1.00000
     11      -5.6224      1.00000
     12      -5.1820      1.00000
     13      -4.5591      1.00000
     14       1.2208      0.00000
     15       1.9603      0.00000
     16       2.5849      0.00000
     17       3.1232      0.00000
     18       3.4972      0.00000
     19       3.8764      0.00000
     20       4.4281      0.00000

 k-point     6 :       0.3125    0.0000    0.0000
  band No.  band energies     occupation 
      1     -18.6066      1.00000
      2     -18.2143      1.00000
      3      -9.4223      1.00000
      4      -9.3770      1.00000
      5      -8.7988      1.00000
      6      -8.3238      1.00000
      7      -7.9880      1.00000
      8      -7.6456      1.00000
      9      -6.9764      1.00000
     10      -6.0937      1.00000
     11      -5.8599      1.00000
     12      -5.0593      1.00000
     13      -4.5935      1.00000
     14       0.8981      0.00000
     15       2.1624      0.00000
     16       2.9464      0.00000
     17       3.4083      0.00000
     18       3.8957      0.00000
     19       4.1544      0.00000
     20       4.6907      0.00000

 k-point     7 :       0.3750    0.0000    0.0000
  band No.  band energies     occupation 
      1     -18.4642      1.00000
      2     -18.1900      1.00000
      3      -9.4147      1.00000
      4      -9.2801      1.00000
      5      -9.0723      1.00000
      6      -8.2107      1.00000
      7      -7.9450      1.00000
      8      -7.7345      1.00000
      9      -7.3411      1.00000
     10      -6.2373      1.00000
     11      -6.0646      1.00000
     12      -4.9669      1.00000
     13      -4.6215      1.00000
     14       0.5672      0.00000
     15       2.2479      0.00000
     16       3.2608      0.00000
     17       3.6537      0.00000
     18       4.2700      0.00000
     19       4.5751      0.00000
     20       4.7466      0.00000

 k-point     8 :       0.4375   -0.0000    0.0000
  band No.  band energies     occupation 
      1     -18.3482      1.00000
      2     -18.1908      1.00000
      3      -9.4111      1.00000
      4      -9.3055      1.00000
      5      -9.1425      1.00000
      6      -8.1353      1.00000
      7      -7.9154      1.00000
      8      -7.9067      1.00000
      9      -7.4759      1.00000
     10      -6.3073      1.00000
     11      -6.2058      1.00000
     12      -4.9140      1.00000
     13      -4.6396      1.00000
     14       0.3485      0.00000
     15       2.2385      0.00000
     16       3.3809      0.00000
     17       3.8167      0.00000
     18       4.6145      0.00000
     19       5.0762      0.00000
     20       5.2678      0.00000

 k-point     9 :       0.5000    0.0000    0.0000
  band No.  band energies     occupation 
      1     -18.2924      1.00000
      2     -18.2054      1.00000
      3      -9.4101      1.00000
      4      -9.3777      1.00000
      5      -9.0876      1.00000
      6      -8.1076      1.00000
      7      -8.0304      1.00000
      8      -7.8910      1.00000
      9      -7.4860      1.00000
     10      -6.3288      1.00000
     11      -6.2568      1.00000
     12      -4.8975      1.00000
     13      -4.6459      1.00000
     14       0.2732      0.00000
     15       2.2244      0.00000
     16       3.4266      0.00000
     17       3.7833      0.00000
     18       5.1426      0.00000
     19       5.1775      0.00000
     20       5.3047      0.00000

 k-point    10 :       0.0625    0.0625    0.0000
  band No.  band energies     occupation 
      1     -19.0213      1.00000
      2     -18.3486      1.00000
      3      -9.4828      1.00000
      4      -9.4694      1.00000
      5      -8.8977      1.00000
      6      -8.0926      1.00000
      7      -8.0537      1.00000
      8      -7.2578      1.00000
      9      -5.5124      1.00000
     10      -5.4098      1.00000
     11      -5.1949      1.00000
     12      -4.7483      1.00000
     13      -4.5352      1.00000
     14       0.5336      0.00000
     15       1.8426      0.00000
     16       2.2216      0.00000
     17       2.2220      0.00000
     18       2.7442      0.00000
     19       3.3348      0.00000
     20       3.7791      0.00000

 k-point    11 :       0.1250    0.0625    0.0000
  band No.  band energies     occupation 
      1     -18.9327      1.00000
      2     -18.3149      1.00000
      3      -9.4773      1.00000
      4      -9.4578      1.00000
      5      -8.7951      1.00000
      6      -8.1543      1.00000
      7      -8.0578      1.00000
      8      -7.3533      1.00000
      9      -5.8361      1.00000
     10      -5.5604      1.00000
     11      -5.3747      1.00000
     12      -4.9740      1.00000
     13      -4.6041      1.00000
     14       0.9762      0.00000
     15       2.0565      0.00000
     16       2.2913      0.00000
     17       2.6709      0.00000
     18       2.8902      0.00000
     19       3.5125      0.00000
     20       3.7284      0.00000

 k-point    12 :       0.1875    0.0625    0.0000
  band No.  band energies     occupation 
      1     -18.8108      1.00000
      2     -18.2721      1.00000
      3      -9.4563      1.00000
      4      -9.4435      1.00000
      5      -8.6716      1.00000
      6      -8.2713      1.00000
      7      -8.0551      1.00000
      8      -7.4872      1.00000
      9      -6.3004      1.00000
     10      -5.8506      1.00000
     11      -5.4386      1.00000
     12      -5.1469      1.00000
     13      -4.6387      1.00000
     14       1.3187      0.00000
     15       2.0314      0.00000
     16       2.4408      0.00000
     17       3.0235      0.00000
     18       3.3379      0.00000
     19       3.7693      0.00000
     20       4.0849      0.00000

 k-point    13 :       0.2500    0.0625    0.0000
  band No.  band energies     occupation 
      1     -18.6686      1.00000
      2     -18.2289      1.00000
      3      -9.4358      1.00000
      4      -9.4029      1.00000
      5      -8.6640      1.00000
      6      -8.3591      1.00000
      7      -8.0402      1.00000
      8      -7.6035      1.00000
      9      -6.7523      1.00000
     10      -6.0984      1.00000
     11      -5.7022      1.00000
     12      -5.0883      1.00000
     13      -4.6653      1.00000
     14       1.1729      0.00000
     15       2.1724      0.00000
     16       2.7623      0.00000
     17       3.3662      0.00000
     18       3.7298      0.00000
     19       4.0595      0.00000
     20       4.5658      0.00000

 k-point    14 :       0.3125    0.0625    0.0000
  band No.  band energies     occupation 
      1     -18.5231      1.00000
      2     -18.1959      1.00000
      3      -9.4279      1.00000
      4      -9.3199      1.00000
      5      -8.9076      1.00000
      6      -8.2670      1.00000
      7      -8.0157      1.00000
      8      -7.6687      1.00000
      9      -7.1675      1.00000
     10      -6.2537      1.00000
     11      -5.9623      1.00000
     12      -5.0028      1.00000
     13      -4.6880      1.00000
     14       0.8299      0.00000
     15       2.3512      0.00000
     16       3.1507      0.00000
     17       3.5892      0.00000
     18       4.1525      0.00000
     19       4.3646      0.00000
     20       4.6873      0.00000

 k-point    15 :       0.3750    0.0625    0.0000
  band No.  band energies     occupation 
      1     -18.3936      1.00000
      2     -18.1835      1.00000
      3      -9.4228      1.00000
      4      -9.2349      1.00000
      5      -9.1346      1.00000
      6      -8.1755      1.00000
      7      -8.0011      1.00000
      8      -7.7397      1.00000
      9      -7.4432      1.00000
     10      -6.3336      1.00000
     11      -6.1640      1.00000
     12      -4.9368      1.00000
     13      -4.7102      1.00000
     14       0.5534      0.00000
     15       2.3987      0.00000
     16       3.4033      0.00000
     17       3.7905      0.00000
     18       4.4485      0.00000
     19       4.8802      0.00000
     20       4.9498      0.00000

 k-point    16 :       0.4375    0.0625    0.0000
  band No.  band energies     occupation 
      1     -18.3026      1.00000
      2     -18.1957      1.00000
      3      -9.4146      1.00000
      4      -9.3335      1.00000
      5      -9.0932      1.00000
      6      -8.1424      1.00000
      7      -8.0330      1.00000
      8      -7.8213      1.00000
      9      -7.5077      1.00000
     10      -6.3488      1.00000
     11      -6.2933      1.00000
     12      -4.8972      1.00000
     13      -4.7297      1.00000
     14       0.4059      0.00000
     15       2.3908      0.00000
     16       3.4910      0.00000
     17       3.8439      0.00000
     18       4.7718      0.00000
     19       5.0406      0.00000
     20       5.4683      0.00000

 k-point    17 :       0.1250    0.1250    0.0000
  band No.  band energies     occupation 
      1     -18.8301      1.00000
      2     -18.2783      1.00000
      3      -9.4562      1.00000
      4      -9.4514      1.00000
      5      -8.6844      1.00000
      6      -8.2166      1.00000
      7      -8.0901      1.00000
      8      -7.4669      1.00000
      9      -6.0715      1.00000
     10      -6.0478      1.00000
     11      -5.3790      1.00000
     12      -4.9325      1.00000
     13      -4.8344      1.00000
     14       1.3503      0.00000
     15       2.2787      0.00000
     16       2.2790      0.00000
     17       3.0625      0.00000
     18       3.1915      0.00000
     19       3.7336      0.00000
     20       3.8554      0.00000

 k-point    18 :       0.1875    0.1250    0.0000
  band No.  band energies     occupation 
      1     -18.7016      1.00000
      2     -18.2370      1.00000
      3      -9.4483      1.00000
      4      -9.4114      1.00000
      5      -8.5848      1.00000
      6      -8.3271      1.00000
      7      -8.1229      1.00000
      8      -7.5775      1.00000
      9      -6.5283      1.00000
     10      -6.2588      1.00000
     11      -5.5105      1.00000
     12      -5.0545      1.00000
     13      -4.8522      1.00000
     14       1.4726      0.00000
     15       2.3238      0.00000
     16       2.5674      0.00000
     17       3.4105      0.00000
     18       3.6791      0.00000
     19       4.0381      0.00000
     20       4.2377      0.00000

 k-point    19 :       0.2500    0.1250    0.0000
  band No.  band energies     occupation 
      1     -18.5620      1.00000
      2     -18.2000      1.00000
      3      -9.4480      1.00000
      4      -9.3379      1.00000
      5      -8.6958      1.00000
      6      -8.3357      1.00000
      7      -8.1268      1.00000
      8      -7.6356      1.00000
      9      -6.9481      1.00000
     10      -6.4009      1.00000
     11      -5.7906      1.00000
     12      -5.0863      1.00000
     13      -4.8171      1.00000
     14       1.2344      0.00000
     15       2.5494      0.00000
     16       2.9626      0.00000
     17       3.7560      0.00000
     18       4.0691      0.00000
     19       4.3207      0.00000
     20       4.6151      0.00000

 k-point    20 :       0.3125    0.1250    0.0000
  band No.  band energies     occupation 
      1     -18.4290      1.00000
      2     -18.1775      1.00000
      3      -9.4454      1.00000
      4      -9.2441      1.00000
      5      -8.9464      1.00000
      6      -8.2539      1.00000
      7      -8.1109      1.00000
      8      -7.6507      1.00000
      9      -7.2968      1.00000
     10      -6.4905      1.00000
     11      -6.0596      1.00000
     12      -5.0559      1.00000
     13      -4.8100      1.00000
     14       0.9457      0.00000
     15       2.7179      0.00000
     16       3.3891      0.00000
     17       3.8724      0.00000
     18       4.4337      0.00000
     19       4.7211      0.00000
     20       4.8087      0.00000

 k-point    21 :       0.3750    0.1250    0.0000
  band No.  band energies     occupation 
      1     -18.3216      1.00000
      2     -18.1776      1.00000
      3      -9.4309      1.00000
      4      -9.2278      1.00000
      5      -9.0712      1.00000
      6      -8.2094      1.00000
      7      -8.0936      1.00000
      8      -7.6656      1.00000
      9      -7.5226      1.00000
     10      -6.5199      1.00000
     11      -6.2550      1.00000
     12      -4.9950      1.00000
     13      -4.8427      1.00000
     14       0.7430      0.00000
     15       2.7943      0.00000
     16       3.6628      0.00000
     17       3.9184      0.00000
     18       4.5886      0.00000
     19       4.8229      0.00000
     20       5.3366      0.00000

 k-point    22 :       0.4375    0.1250    0.0000
  band No.  band energies     occupation 
      1     -18.2705      1.00000
      2     -18.1904      1.00000
      3      -9.4094      1.00000
      4      -9.2995      1.00000
      5      -9.0443      1.00000
      6      -8.2052      1.00000
      7      -8.0869      1.00000
      8      -7.6898      1.00000
      9      -7.5821      1.00000
     10      -6.5103      1.00000
     11      -6.3394      1.00000
     12      -4.9383      1.00000
     13      -4.8897      1.00000
     14       0.6716      0.00000
     15       2.8113      0.00000
     16       3.7332      0.00000
     17       4.0240      0.00000
     18       4.3359      0.00000
     19       5.4634      0.00000
     20       5.4702      0.00000

 k-point    23 :       0.1875    0.1875    0.0000
  band No.  band energies     occupation 
      1     -18.5755      1.00000
      2     -18.2015      1.00000
      3      -9.4565      1.00000
      4      -9.3428      1.00000
      5      -8.5329      1.00000
      6      -8.4250      1.00000
      7      -8.1862      1.00000
      8      -7.6272      1.00000
      9      -6.8026      1.00000
     10      -6.5300      1.00000
     11      -5.6604      1.00000
     12      -5.1977      1.00000
     13      -4.8567      1.00000
     14       1.4645      0.00000
     15       2.6603      0.00000
     16       2.8140      0.00000
     17       3.8762      0.00000
     18       4.0927      0.00000
     19       4.4333      0.00000
     20       4.5019      0.00000

 k-point    24 :       0.2500    0.1875    0.0000
  band No.  band energies     occupation 
      1     -18.4483      1.00000
      2     -18.1741      1.00000
      3      -9.4620      1.00000
      4      -9.2541      1.00000
      5      -8.6930      1.00000
      6      -8.4365      1.00000
      7      -8.1687      1.00000
      8      -7.6404      1.00000
      9      -7.0880      1.00000
     10      -6.6802      1.00000
     11      -5.9287      1.00000
     12      -5.2602      1.00000
     13      -4.8279      1.00000
     14       1.3064      0.00000
     15       2.8451      0.00000
     16       3.3242      0.00000
     17       4.2349      0.00000
     18       4.5209      0.00000
     19       4.6155      0.00000
     20       4.8024      0.00000

 k-point    25 :       0.3125    0.1875    0.0000
  band No.  band energies     occupation 
      1     -18.3367      1.00000
      2     -18.1635      1.00000
      3      -9.4490      1.00000
      4      -9.1869      1.00000
      5      -8.8979      1.00000
      6      -8.3726      1.00000
      7      -8.1502      1.00000
      8      -7.6518      1.00000
      9      -7.3327      1.00000
     10      -6.7317      1.00000
     11      -6.2013      1.00000
     12      -5.2160      1.00000
     13      -4.8496      1.00000
     14       1.1196      0.00000
     15       3.0766      0.00000
     16       3.7146      0.00000
     17       4.2267      0.00000
     18       4.7514      0.00000
     19       4.8299      0.00000
     20       5.1815      0.00000

 k-point    26 :       0.3750    0.1875    0.0000
  band No.  band energies     occupation 
      1     -18.2596      1.00000
      2     -18.1729      1.00000
      3      -9.4105      1.00000
      4      -9.2282      1.00000
      5      -8.9577      1.00000
      6      -8.2927      1.00000
      7      -8.1728      1.00000
      8      -7.6723      1.00000
      9      -7.4833      1.00000
     10      -6.7006      1.00000
     11      -6.3916      1.00000
     12      -5.1424      1.00000
     13      -4.9028      1.00000
     14       1.0043      0.00000
     15       3.2735      0.00000
     16       3.8505      0.00000
     17       4.2230      0.00000
     18       4.4660      0.00000
     19       5.2901      0.00000
     20       5.7491      0.00000

 k-point    27 :       0.2500    0.2500    0.0000
  band No.  band energies     occupation 
      1     -18.3423      1.00000
      2     -18.1583      1.00000
      3      -9.4567      1.00000
      4      -9.1845      1.00000
      5      -8.6339      1.00000
      6      -8.6297      1.00000
      7      -8.1652      1.00000
      8      -7.6639      1.00000
      9      -7.1652      1.00000
     10      -6.8803      1.00000
     11      -6.1745      1.00000
     12      -5.3178      1.00000
     13      -4.8497      1.00000
     14       1.2972      0.00000
     15       3.0494      0.00000
     16       3.8304      0.00000
     17       4.4397      0.00000
     18       4.9422      0.00000
     19       5.0453      0.00000
     20       5.0742      0.00000

 k-point    28 :       0.3125    0.2500    0.0000
  band No.  band energies     occupation 
      1     -18.2585      1.00000
      2     -18.1588      1.00000
      3      -9.4157      1.00000
      4      -9.1895      1.00000
      5      -8.7666      1.00000
      6      -8.5054      1.00000
      7      -8.2141      1.00000
      8      -7.7185      1.00000
      9      -7.2406      1.00000
     10      -6.8954      1.00000
     11      -6.4519      1.00000
     12      -5.2517      1.00000
     13      -4.9185      1.00000
     14       1.2368      0.00000
     15       3.3367      0.00000
     16       3.9495      0.00000
     17       4.6199      0.00000
     18       5.0081      0.00000
     19       5.1993      0.00000
     20       5.5454      0.00000

 k-point    29 :       0.3750    0.2500    0.0000
  band No.  band energies     occupation 
      1     -18.2179      1.00000
      2     -18.1697      1.00000
      3      -9.3700      1.00000
      4      -9.2381      1.00000
      5      -8.8015      1.00000
      6      -8.3442      1.00000
      7      -8.3414      1.00000
      8      -7.7484      1.00000
      9      -7.2799      1.00000
     10      -6.8173      1.00000
     11      -6.6174      1.00000
     12      -5.1887      1.00000
     13      -4.9758      1.00000
     14       1.2054      0.00000
     15       3.6596      0.00000
     16       3.6969      0.00000
     17       4.7209      0.00000
     18       4.9422      0.00000
     19       5.5779      0.00000
     20       5.6403      0.00000

 k-point    30 :       0.3125    0.3125    0.0000
  band No.  band energies     occupation 
      1     -18.2034      1.00000
      2     -18.1684      1.00000
      3      -9.3463      1.00000
      4      -9.2485      1.00000
      5      -8.6335      1.00000
      6      -8.5310      1.00000
      7      -8.3585      1.00000
      8      -7.7728      1.00000
      9      -7.0677      1.00000
     10      -6.9500      1.00000
     11      -6.7492      1.00000
     12      -5.1705      1.00000
     13      -5.0266      1.00000
     14       1.2776      0.00000
     15       3.6023      0.00000
     16       3.8462      0.00000
     17       5.0115      0.00000
     18       5.3533      0.00000
     19       5.3956      0.00000
     20       5.5796      0.00000

 spin component 2

 k-point     1 :       0.0000    0.0000    0.0000
  band No.  band energies     occupation 
      1     -18.9146      1.00000
      2     -18.1884      1.00000
      3      -8.5756      1.00000
      4      -7.1766      1.00000
      5      -7.1765      1.00000
      6      -6.4000      1.00000
      7      -5.7995      1.00000
      8      -5.7995      1.00000
      9      -5.3979      1.00000
     10      -4.7850      1.00000
     11      -4.7850      1.00000
     12      -2.1955      0.00000
     13      -2.1955      0.00000
     14       0.2434      0.00000
     15       1.5161      0.00000
     16       1.9916      0.00000
     17       2.1417      0.00000
     18       2.7014      0.00000
     19       3.2183      0.00000
     20       4.2410      0.00000

 k-point     2 :       0.0625    0.0000    0.0000
  band No.  band energies     occupation 
      1     -18.8906      1.00000
      2     -18.1764      1.00000
      3      -8.5447      1.00000
      4      -7.2146      1.00000
      5      -7.1674      1.00000
      6      -6.4333      1.00000
      7      -5.9114      1.00000
      8      -5.8241      1.00000
      9      -5.3204      1.00000
     10      -4.9271      1.00000
     11      -4.8159      1.00000
     12      -2.2854      0.00000
     13      -2.2024      0.00000
     14       0.4133      0.00000
     15       1.6976      0.00000
     16       2.0759      0.00000
     17       2.1968      0.00000
     18       2.7447      0.00000
     19       3.2663      0.00000
     20       4.1050      0.00000

 k-point     3 :       0.1250    0.0000    0.0000
  band No.  band energies     occupation 
      1     -18.8207      1.00000
      2     -18.1426      1.00000
      3      -8.4567      1.00000
      4      -7.3329      1.00000
      5      -7.1411      1.00000
      6      -6.5488      1.00000
      7      -6.1165      1.00000
      8      -5.8906      1.00000
      9      -5.2599      1.00000
     10      -5.2135      1.00000
     11      -4.9063      1.00000
     12      -2.4649      0.00000
     13      -2.2186      0.00000
     14       0.8351      0.00000
     15       1.9883      0.00000
     16       2.3155      0.00000
     17       2.4351      0.00000
     18       2.8549      0.00000
     19       3.4061      0.00000
     20       3.8824      0.00000

 k-point     4 :       0.1875    0.0000    0.0000
  band No.  band energies     occupation 
      1     -18.7112      1.00000
      2     -18.0927      1.00000
      3      -8.3323      1.00000
      4      -7.5350      1.00000
      5      -7.1007      1.00000
      6      -6.7754      1.00000
      7      -6.3087      1.00000
      8      -5.9804      1.00000
      9      -5.5694      1.00000
     10      -5.2042      1.00000
     11      -5.0481      1.00000
     12      -2.5872      0.00000
     13      -2.2353      0.00000
     14       1.3200      0.00000
     15       2.0860      0.00000
     16       2.4131      0.00000
     17       2.8227      0.00000
     18       3.1733      0.00000
     19       3.6310      0.00000
     20       4.0452      0.00000

 k-point     5 :       0.2500    0.0000    0.0000
  band No.  band energies     occupation 
      1     -18.5729      1.00000
      2     -18.0359      1.00000
      3      -8.2537      1.00000
      4      -7.7637      1.00000
      5      -7.0595      1.00000
      6      -7.0521      1.00000
      7      -6.4588      1.00000
      8      -6.0693      1.00000
      9      -5.7889      1.00000
     10      -5.2797      1.00000
     11      -5.2260      1.00000
     12      -2.5909      0.00000
     13      -2.2467      0.00000
     14       1.4998      0.00000
     15       2.0370      0.00000
     16       2.6679      0.00000
     17       3.1753      0.00000
     18       3.5639      0.00000
     19       3.9254      0.00000
     20       4.5371      0.00000

 k-point     6 :       0.3125    0.0000    0.0000
  band No.  band energies     occupation 
      1     -18.4209      1.00000
      2     -17.9844      1.00000
      3      -8.4325      1.00000
      4      -7.8196      1.00000
      5      -7.2671      1.00000
      6      -7.0044      1.00000
      7      -6.5701      1.00000
      8      -6.1325      1.00000
      9      -5.9301      1.00000
     10      -5.4206      1.00000
     11      -5.4127      1.00000
     12      -2.5055      0.00000
     13      -2.2522      0.00000
     14       1.1698      0.00000
     15       2.2611      0.00000
     16       3.0398      0.00000
     17       3.4799      0.00000
     18       3.9433      0.00000
     19       4.2207      0.00000
     20       4.8172      0.00000

 k-point     7 :       0.3750    0.0000    0.0000
  band No.  band energies     occupation 
      1     -18.2744      1.00000
      2     -17.9510      1.00000
      3      -8.7352      1.00000
      4      -7.8480      1.00000
      5      -7.2958      1.00000
      6      -6.9675      1.00000
      7      -6.6249      1.00000
      8      -6.1501      1.00000
      9      -6.0300      1.00000
     10      -5.6115      1.00000
     11      -5.5628      1.00000
     12      -2.3937      0.00000
     13      -2.2537      0.00000
     14       0.8407      0.00000
     15       2.3502      0.00000
     16       3.3792      0.00000
     17       3.7392      0.00000
     18       4.3616      0.00000
     19       4.6271      0.00000
     20       4.8444      0.00000

 k-point     8 :       0.4375   -0.0000    0.0000
  band No.  band energies     occupation 
      1     -18.1573      1.00000
      2     -17.9438      1.00000
      3      -8.9608      1.00000
      4      -7.9244      1.00000
      5      -7.2364      1.00000
      6      -6.9471      1.00000
      7      -6.6000      1.00000
      8      -6.1189      1.00000
      9      -6.1140      1.00000
     10      -5.7747      1.00000
     11      -5.6877      1.00000
     12      -2.3078      0.00000
     13      -2.2535      0.00000
     14       0.6286      0.00000
     15       2.3337      0.00000
     16       3.5211      0.00000
     17       3.9430      0.00000
     18       4.6969      0.00000
     19       5.1349      0.00000
     20       5.3107      0.00000

 k-point     9 :       0.5000    0.0000    0.0000
  band No.  band energies     occupation 
      1     -18.1067      1.00000
      2     -17.9500      1.00000
      3      -9.0420      1.00000
      4      -7.9588      1.00000
      5      -7.2118      1.00000
      6      -6.9411      1.00000
      7      -6.5590      1.00000
      8      -6.1610      1.00000
      9      -6.0836      1.00000
     10      -5.8546      1.00000
     11      -5.7371      1.00000
     12      -2.2764      0.00000
     13      -2.2533      0.00000
     14       0.5567      0.00000
     15       2.3157      0.00000
     16       3.5871      0.00000
     17       3.9000      0.00000
     18       5.2135      0.00000
     19       5.3385      0.00000
     20       5.3688      0.00000

 k-point    10 :       0.0625    0.0625    0.0000
  band No.  band energies     occupation 
      1     -18.8436      1.00000
      2     -18.1536      1.00000
      3      -8.4851      1.00000
      4      -7.2885      1.00000
      5      -7.1550      1.00000
      6      -6.5057      1.00000
      7      -6.0572      1.00000
      8      -5.8753      1.00000
      9      -5.2415      1.00000
     10      -5.1520      1.00000
     11      -4.8835      1.00000
     12      -2.4011      0.00000
     13      -2.2312      0.00000
     14       0.7089      0.00000
     15       1.9308      0.00000
     16       2.2960      0.00000
     17       2.3068      0.00000
     18       2.8142      0.00000
     19       3.3607      0.00000
     20       3.9028      0.00000

 k-point    11 :       0.1250    0.0625    0.0000
  band No.  band energies     occupation 
      1     -18.7539      1.00000
      2     -18.1116      1.00000
      3      -8.3769      1.00000
      4      -7.4389      1.00000
      5      -7.1437      1.00000
      6      -6.6614      1.00000
      7      -6.2432      1.00000
      8      -5.9649      1.00000
      9      -5.4553      1.00000
     10      -5.1949      1.00000
     11      -5.0111      1.00000
     12      -2.5214      0.00000
     13      -2.2730      0.00000
     14       1.1662      0.00000
     15       2.1434      0.00000
     16       2.4036      0.00000
     17       2.7586      0.00000
     18       2.9670      0.00000
     19       3.5433      0.00000
     20       3.8350      0.00000

 k-point    12 :       0.1875    0.0625    0.0000
  band No.  band energies     occupation 
      1     -18.6299      1.00000
      2     -18.0581      1.00000
      3      -8.2592      1.00000
      4      -7.6596      1.00000
      5      -7.1700      1.00000
      6      -6.8537      1.00000
      7      -6.4071      1.00000
      8      -6.0666      1.00000
      9      -5.7073      1.00000
     10      -5.2481      1.00000
     11      -5.1625      1.00000
     12      -2.5712      0.00000
     13      -2.2957      0.00000
     14       1.5694      0.00000
     15       2.1313      0.00000
     16       2.5289      0.00000
     17       3.0704      0.00000
     18       3.4235      0.00000
     19       3.8113      0.00000
     20       4.1965      0.00000

 k-point    13 :       0.2500    0.0625    0.0000
  band No.  band energies     occupation 
      1     -18.4845      1.00000
      2     -18.0036      1.00000
      3      -8.2894      1.00000
      4      -7.8201      1.00000
      5      -7.2814      1.00000
      6      -6.9362      1.00000
      7      -6.5342      1.00000
      8      -6.1566      1.00000
      9      -5.8769      1.00000
     10      -5.4022      1.00000
     11      -5.3079      1.00000
[...]
  band No.  band energies     occupation 
      1     -18.2551      1.00000
      2     -17.9363      1.00000
      3      -8.4190      1.00000
      4      -8.0248      1.00000
      5      -7.4166      1.00000
      6      -6.7529      1.00000
      7      -6.7354      1.00000
      8      -6.4980      1.00000
      9      -6.0286      1.00000
     10      -5.7966      1.00000
     11      -5.5235      1.00000
     12      -2.5559      0.00000
     13      -2.3022      0.00000
     14       1.6164      0.00000
     15       2.9479      0.00000
     16       3.4170      0.00000
     17       4.3146      0.00000
     18       4.5762      0.00000
     19       4.6811      0.00000
     20       4.9456      0.00000

 k-point    25 :       0.3125    0.1875    0.0000
  band No.  band energies     occupation 
      1     -18.1372      1.00000
      2     -17.9223      1.00000
      3      -8.6277      1.00000
      4      -8.0132      1.00000
      5      -7.4326      1.00000
      6      -6.8328      1.00000
      7      -6.8017      1.00000
      8      -6.3971      1.00000
      9      -6.0815      1.00000
     10      -5.9558      1.00000
     11      -5.6878      1.00000
     12      -2.5277      0.00000
     13      -2.2824      0.00000
     14       1.4221      0.00000
     15       3.1801      0.00000
     16       3.8235      0.00000
     17       4.3417      0.00000
     18       4.8744      0.00000
     19       4.9722      0.00000
     20       5.2592      0.00000

 k-point    26 :       0.3750    0.1875    0.0000
  band No.  band energies     occupation 
      1     -18.0574      1.00000
      2     -17.9291      1.00000
      3      -8.7510      1.00000
      4      -7.9638      1.00000
      5      -7.5262      1.00000
      6      -6.8605      1.00000
      7      -6.7954      1.00000
      8      -6.2585      1.00000
      9      -6.1171      1.00000
     10      -6.0911      1.00000
     11      -5.8050      1.00000
     12      -2.4811      0.00000
     13      -2.2992      0.00000
     14       1.3034      0.00000
     15       3.3701      0.00000
     16       3.9786      0.00000
     17       4.3581      0.00000
     18       4.6356      0.00000
     19       5.3860      0.00000
     20       5.8224      0.00000

 k-point    27 :       0.2500    0.2500    0.0000
  band No.  band energies     occupation 
      1     -18.1417      1.00000
      2     -17.9183      1.00000
      3      -8.4747      1.00000
      4      -8.1195      1.00000
      5      -7.4721      1.00000
      6      -6.8335      1.00000
      7      -6.7583      1.00000
      8      -6.4948      1.00000
      9      -6.0741      1.00000
     10      -5.9707      1.00000
     11      -5.6775      1.00000
     12      -2.5676      0.00000
     13      -2.2844      0.00000
     14       1.6102      0.00000
     15       3.1503      0.00000
     16       3.9223      0.00000
     17       4.5400      0.00000
     18       5.0749      0.00000
     19       5.1102      0.00000
     20       5.1542      0.00000

 k-point    28 :       0.3125    0.2500    0.0000
  band No.  band energies     occupation 
      1     -18.0499      1.00000
      2     -17.9203      1.00000
      3      -8.5414      1.00000
      4      -8.0775      1.00000
      5      -7.6633      1.00000
      6      -6.8253      1.00000
      7      -6.7997      1.00000
      8      -6.3889      1.00000
      9      -6.1229      1.00000
     10      -6.0879      1.00000
     11      -5.8207      1.00000
     12      -2.5271      0.00000
     13      -2.3146      0.00000
     14       1.5433      0.00000
     15       3.4453      0.00000
     16       4.0550      0.00000
     17       4.7375      0.00000
     18       5.1795      0.00000
     19       5.3407      0.00000
     20       5.6217      0.00000

 k-point    29 :       0.3750    0.2500    0.0000
  band No.  band energies     occupation 
      1     -18.0062      1.00000
      2     -17.9321      1.00000
      3      -8.5728      1.00000
      4      -7.9745      1.00000
      5      -7.8265      1.00000
      6      -6.8177      1.00000
      7      -6.8040      1.00000
      8      -6.2739      1.00000
      9      -6.2460      1.00000
     10      -6.0804      1.00000
     11      -5.8903      1.00000
     12      -2.4893      0.00000
     13      -2.3479      0.00000
     14       1.5086      0.00000
     15       3.7616      0.00000
     16       3.8242      0.00000
     17       4.8537      0.00000
     18       5.1201      0.00000
     19       5.6686      0.00000
     20       5.7664      0.00000

 k-point    30 :       0.3125    0.3125    0.0000
  band No.  band energies     occupation 
      1     -17.9843      1.00000
      2     -17.9370      1.00000
      3      -8.4174      1.00000
      4      -8.0783      1.00000
      5      -7.9304      1.00000
      6      -6.8013      1.00000
      7      -6.7929      1.00000
      8      -6.3419      1.00000
      9      -6.2529      1.00000
     10      -6.0462      1.00000
     11      -5.9388      1.00000
     12      -2.4747      0.00000
     13      -2.3828      0.00000
     14       1.5811      0.00000
     15       3.7246      0.00000
     16       3.9662      0.00000
     17       5.1369      0.00000
     18       5.4537      0.00000
     19       5.5495      0.00000
     20       5.7174      0.00000


--------------------------------------------------------------------------------------------------------


 soft charge-density along one line, spin component           1
         0         1         2         3         4         5         6         7         8         9
 total charge-density along one line
 
 soft charge-density along one line, spin component           2
         0         1         2         3         4         5         6         7         8         9
 total charge-density along one line
 
 pseudopotential strength for first ion, spin component:           1
-12.452  -0.000  -0.000  -0.397  -0.000 -12.707  -0.000  -0.000
 -0.000 -12.721  -0.000   0.000  -0.397  -0.000 -12.967  -0.000
 -0.000  -0.000 -12.164  -0.000   0.000  -0.000  -0.000 -12.430
 -0.397   0.000  -0.000 -12.721  -0.000  -0.383   0.000  -0.000
 -0.000  -0.397   0.000  -0.000 -12.452  -0.000  -0.383   0.000
-12.707  -0.000  -0.000  -0.383  -0.000 -12.929  -0.000  -0.000
 -0.000 -12.967  -0.000   0.000  -0.383  -0.000 -13.179  -0.000
 -0.000  -0.000 -12.430  -0.000   0.000  -0.000  -0.000 -12.661
 -0.383   0.000  -0.000 -12.967  -0.000  -0.370   0.000  -0.000
 -0.000  -0.383   0.000  -0.000 -12.707  -0.000  -0.370   0.000
 -0.000   0.000  -0.001   0.000   0.000  -0.000   0.000  -0.001
 -0.000   0.000  -0.002   0.000   0.000  -0.000   0.000  -0.002
  0.000  -0.000  -0.000   0.000  -0.000   0.000  -0.000  -0.000
  0.000   0.000   0.000   0.000   0.000   0.000   0.000   0.000
  0.000   0.000  -0.000   0.000   0.000   0.000   0.000  -0.000
  0.000  -0.000  -0.000   0.000  -0.000   0.000  -0.000  -0.000
  0.000   0.000   0.000   0.000   0.000   0.000   0.000   0.000
  0.000   0.000  -0.000   0.000   0.000   0.000   0.000  -0.000
 pseudopotential strength for first ion, spin component:           2
-10.189  -0.000  -0.000   1.525  -0.000 -10.503  -0.000  -0.000
 -0.000  -9.115  -0.000  -0.000   1.525  -0.000  -9.432  -0.000
 -0.000  -0.000 -11.266  -0.000   0.000  -0.000  -0.000 -11.577
  1.525  -0.000  -0.000  -9.115  -0.000   1.520  -0.000  -0.000
 -0.000   1.525   0.000  -0.000 -10.189  -0.000   1.520   0.000
-10.503  -0.000  -0.000   1.520  -0.000 -10.770  -0.000  -0.000
 -0.000  -9.432  -0.000  -0.000   1.520  -0.000  -9.692  -0.000
 -0.000  -0.000 -11.577  -0.000   0.000  -0.000  -0.000 -11.852
  1.520  -0.000  -0.000  -9.432  -0.000   1.530  -0.000  -0.000
 -0.000   1.520   0.000  -0.000 -10.503  -0.000   1.530   0.000
 -0.000   0.000  -0.001   0.000   0.000  -0.000   0.000  -0.001
 -0.000   0.000  -0.001   0.000   0.000  -0.000   0.000  -0.001
  0.000  -0.000  -0.000   0.000  -0.000   0.000  -0.000  -0.000
  0.000   0.000   0.000   0.000   0.000   0.000   0.000   0.000
  0.000   0.000  -0.000   0.000   0.000   0.000   0.000  -0.000
  0.000  -0.000  -0.000   0.000  -0.000   0.000  -0.000  -0.000
  0.000   0.000   0.000   0.000   0.000   0.000   0.000   0.000
  0.000   0.000  -0.000   0.000   0.000   0.000   0.000  -0.000
 total augmentation occupancy for first ion, spin component:           1
  1.800   0.000   0.000   0.000   0.000   0.000   0.000   0.000   0.000   0.000   0.000   0.000   0.000   0.000   0.000   0.000
  0.000   1.800   0.000   0.000   0.000   0.000   0.000   0.000   0.000   0.000   0.000   0.000   0.000   0.000   0.000   0.000
  0.000   0.000   1.800   0.000   0.000   0.000   0.000   0.000   0.000   0.000   0.000   0.000   0.000   0.000   0.000   0.000
  0.000   0.000   0.000   1.800   0.000   0.000   0.000   0.000   0.000   0.000   0.000   0.000   0.000   0.000   0.000   0.000
  0.000   0.000   0.000   0.000   1.800   0.000   0.000   0.000   0.000   0.000   0.000   0.000   0.000   0.000   0.000   0.000
  0.000   0.000   0.000   0.000   0.000   0.000   0.000   0.000   0.000   0.000   0.000   0.000   0.000   0.000   0.000   0.000
  0.000   0.000   0.000   0.000   0.000   0.000   0.000   0.000   0.000   0.000   0.000   0.000   0.000   0.000   0.000   0.000
  0.000   0.000   0.000   0.000   0.000   0.000   0.000   0.000   0.000   0.000   0.000   0.000   0.000   0.000   0.000   0.000
  0.000   0.000   0.000   0.000   0.000   0.000   0.000   0.000   0.000   0.000   0.000   0.000   0.000   0.000   0.000   0.000
  0.000   0.000   0.000   0.000   0.000   0.000   0.000   0.000   0.000   0.000   0.000   0.000   0.000   0.000   0.000   0.000
  0.000   0.000   0.000   0.000   0.000   0.000   0.000   0.000   0.000   0.000   1.000   0.000   0.000   0.000   0.000   0.000
  0.000   0.000   0.000   0.000   0.000   0.000   0.000   0.000   0.000   0.000   0.000   0.000   0.000   0.000   0.000   0.000
  0.000   0.000   0.000   0.000   0.000   0.000   0.000   0.000   0.000   0.000   0.000   0.000   0.000   0.000   0.000   0.000
  0.000   0.000   0.000   0.000   0.000   0.000   0.000   0.000   0.000   0.000   0.000   0.000   0.000   0.000   0.000   0.000
  0.000   0.000   0.000   0.000   0.000   0.000   0.000   0.000   0.000   0.000   0.000   0.000   0.000   0.000   0.000   0.000
  0.000   0.000   0.000   0.000   0.000   0.000   0.000   0.000   0.000   0.000   0.000   0.000   0.000   0.000   0.000   0.000
  0.000   0.000   0.000   0.000   0.000   0.000   0.000   0.000   0.000   0.000   0.000   0.000   0.000   0.000   0.000   0.000
  0.000   0.000   0.000   0.000   0.000   0.000   0.000   0.000   0.000   0.000   0.000   0.000   0.000   0.000   0.000   0.000
 total augmentation occupancy for first ion, spin component:           2
  0.180   0.000   0.000   0.000   0.000   0.000   0.000   0.000   0.000   0.000   0.000   0.000   0.000   0.000   0.000   0.000
  0.000   0.180   0.000   0.000   0.000   0.000   0.000   0.000   0.000   0.000   0.000   0.000   0.000   0.000   0.000   0.000
  0.000   0.000   0.180   0.000   0.000   0.000   0.000   0.000   0.000   0.000   0.000   0.000   0.000   0.000   0.000   0.000
  0.000   0.000   0.000   0.180   0.000   0.000   0.000   0.000   0.000   0.000   0.000   0.000   0.000   0.000   0.000   0.000
  0.000   0.000   0.000   0.000   0.180   0.000   0.000   0.000   0.000   0.000   0.000   0.000   0.000   0.000   0.000   0.000
  0.000   0.000   0.000   0.000   0.000   0.000   0.000   0.000   0.000   0.000   0.000   0.000   0.000   0.000   0.000   0.000
  0.000   0.000   0.000   0.000   0.000   0.000   0.000   0.000   0.000   0.000   0.000   0.000   0.000   0.000   0.000   0.000
  0.000   0.000   0.000   0.000   0.000   0.000   0.000   0.000   0.000   0.000   0.000   0.000   0.000   0.000   0.000   0.000
  0.000   0.000   0.000   0.000   0.000   0.000   0.000   0.000   0.000   0.000   0.000   0.000   0.000   0.000   0.000   0.000
  0.000   0.000   0.000   0.000   0.000   0.000   0.000   0.000   0.000   0.000   0.000   0.000   0.000   0.000   0.000   0.000
  0.000   0.000   0.000   0.000   0.000   0.000   0.000   0.000   0.000   0.000   0.100   0.000   0.000   0.000   0.000   0.000
  0.000   0.000   0.000   0.000   0.000   0.000   0.000   0.000   0.000   0.000   0.000   0.000   0.000   0.000   0.000   0.000
  0.000   0.000   0.000   0.000   0.000   0.000   0.000   0.000   0.000   0.000   0.000   0.000   0.000   0.000   0.000   0.000
  0.000   0.000   0.000   0.000   0.000   0.000   0.000   0.000   0.000   0.000   0.000   0.000   0.000   0.000   0.000   0.000
  0.000   0.000   0.000   0.000   0.000   0.000   0.000   0.000   0.000   0.000   0.000   0.000   0.000   0.000   0.000   0.000
  0.000   0.000   0.000   0.000   0.000   0.000   0.000   0.000   0.000   0.000   0.000   0.000   0.000   0.000   0.000   0.000
  0.000   0.000   0.000   0.000   0.000   0.000   0.000   0.000   0.000   0.000   0.000   0.000   0.000   0.000   0.000   0.000
  0.000   0.000   0.000   0.000   0.000   0.000   0.000   0.000   0.000   0.000   0.000   0.000   0.000   0.000   0.000   0.000


------------------------ aborting loop because EDIFF is reached ----------------------------------------


 


 total charge     
 
# of ion     s       p       d       tot
----------------------------------------
  1        0.328   0.325   8.197   8.851
  2        1.614   3.230   0.021   4.865
  3        1.614   3.230   0.021   4.865
------------------------------------------------
tot        3.557   6.784   8.239  18.580
 


 magnetization (x)
 
# of ion     s       p       d       tot
----------------------------------------
  1        0.002   0.000   1.554   1.556
  2        0.011   0.159   0.001   0.171
  3        0.011   0.159   0.001   0.171
------------------------------------------------
tot        0.023   0.319   1.555   1.897
 
    CHARGE:  cpu time    0.0451: real time    0.0451
    FORLOC:  cpu time    0.0009: real time    0.0009
    FORNL :  cpu time    0.1527: real time    0.1527
    STRESS:  cpu time    0.3380: real time    0.3380
    FORCOR:  cpu time    0.0258: real time    0.0258
    FORHAR:  cpu time    0.0028: real time    0.0028
    OFIELD:  cpu time    0.0001: real time    0.0001

  FORCE on cell =-STRESS in cart. coord.  units (eV):
  Direction    XX          YY          ZZ          XY          YZ          ZX
  --------------------------------------------------------------------------------------
  Alpha Z    16.10253    16.10253    16.10253
  Ewald    5251.66956  5251.66900 -6227.77573     0.00046     0.00021     0.00032
  Hartree  5638.75761  5638.75769 -5366.49801    -0.00007    -0.00004    -0.00008
  E(xc)    -107.17460  -107.17462  -107.42944    -0.00002     0.00000    -0.00000
  Local  -11329.14093-11329.14079 11152.10950    -0.00054    -0.00012    -0.00014
  n-local    90.51175    90.89229    90.70819    -0.98573     0.04145    -0.13227
  augment   166.02645   166.02666   166.04969     0.00014    -0.00001    -0.00002
  Kinetic   271.04414   275.01228   276.72785    -5.16258    -0.27456    -0.57090
  Fock        0.00000     0.00000     0.00000     0.00000     0.00000     0.00000
  -------------------------------------------------------------------------------------
  Total      -0.02922    -0.02922    -0.00541    -0.00000     0.00000    -0.00000
  in kB      -0.17315    -0.17315    -0.03209    -0.00000     0.00000    -0.00000
  external pressure =       -0.13 kB  Pullay stress =        0.00 kB


 VOLUME and BASIS-vectors are now :
 -----------------------------------------------------------------------------
  energy-cutoff  :      500.00
  volume of cell :      270.35
      direct lattice vectors                 reciprocal lattice vectors
     3.700000048  0.000000000  0.000000000     0.270270267  0.156040563  0.000000000
    -1.849999359  3.204293869  0.000000000     0.000000000  0.312081239  0.000000000
     0.000000000  0.000000000 22.803043365     0.000000000  0.000000000  0.043853795

  length of vectors
     3.700000048  3.699999571 22.803043365     0.312081199  0.312081239  0.043853795


 FORCES acting on ions
    electron-ion (+dipol)            ewald-force                    non-local-force                 convergence-correction
 -----------------------------------------------------------------------------------------------
   -.224E-05 -.123E-05 0.998E-10   -.113E-04 -.626E-05 -.339E-10   0.662E-22 0.000E+00 0.000E+00   0.867E-05 0.479E-05 0.510E-10
   0.119E-02 0.678E-03 -.662E+03   0.116E-03 0.762E-04 0.664E+03   0.694E-17 -.694E-17 -.187E+01   -.925E-05 -.510E-05 0.250E-02
   -.109E-02 -.622E-03 0.662E+03   -.105E-03 -.700E-04 -.664E+03   -.347E-16 0.694E-17 0.187E+01   -.992E-05 -.548E-05 -.250E-02
 -----------------------------------------------------------------------------------------------
   0.995E-04 0.549E-04 0.601E-09   -.151E-13 -.531E-14 0.000E+00   -.278E-16 0.000E+00 0.000E+00   -.105E-04 -.579E-05 0.915E-10
 
 
 POSITION                                       TOTAL-FORCE (eV/Angst)
 -----------------------------------------------------------------------------------
      0.00000      0.00000     11.40152        -0.000000     -0.000000     -0.000000
      1.85000      1.06810     12.82906         0.000000     -0.000000     -0.000447
      0.00000      2.13620      9.97398        -0.000000      0.000000      0.000447
 -----------------------------------------------------------------------------------
    total drift:                                0.000089      0.000049      0.000000


--------------------------------------------------------------------------------------------------------



  FREE ENERGIE OF THE ION-ELECTRON SYSTEM (eV)
  ---------------------------------------------------
  free  energy   TOTEN  =        -8.46982345 eV

  energy  without entropy=       -8.46982345  energy(sigma->0) =       -8.46982345
 


--------------------------------------------------------------------------------------------------------


    POTLOK:  cpu time    0.0317: real time    0.0317


--------------------------------------------------------------------------------------------------------


     LOOP+:  cpu time    6.3458: real time    6.3609
    4ORBIT:  cpu time    0.0000: real time    0.0000
 


 total charge     
 
# of ion     s       p       d       tot
----------------------------------------
  1        0.328   0.325   8.197   8.851
  2        1.614   3.230   0.021   4.865
  3        1.614   3.230   0.021   4.865
------------------------------------------------
tot        3.557   6.784   8.239  18.580
 


 magnetization (x)
 
# of ion     s       p       d       tot
----------------------------------------
  1        0.002   0.000   1.554   1.556
  2        0.011   0.159   0.001   0.171
  3        0.011   0.159   0.001   0.171
------------------------------------------------
tot        0.023   0.319   1.555   1.897
 
 BZINTS: Fermi energy: -4.464948; 24.000000 electrons
         Band energy:-213.936642;  BLOECHL correction:  0.000000

 total amount of memory used by VASP on root node    49215. kBytes
========================================================================

   base      :      30000. kBytes
   nonl-proj :      10112. kBytes
   fftplans  :        957. kBytes
   grid      :       2432. kBytes
   one-center:         31. kBytes
   wavefun   :       5683. kBytes
 
  
  
 General timing and accounting informations for this job:
 ========================================================
  
                  Total CPU time used (sec):        8.127
                            User time (sec):        8.017
                          System time (sec):        0.110
                         Elapsed time (sec):        8.165
  
                   Maximum memory used (kb):       59364.
                   Average memory used (kb):           0.
  
                          Minor page faults:        15037
                          Major page faults:            0
                 Voluntary context switches:          354
