 vasp.5.4.1 24Jun15 (build May 03 2017 13:41:37) complex                        
  
 executed on           IFC91_ompi date 2020.11.04  20:02:28
 running on   24 total cores
 distrk:  each k-point on   24 cores,    1 groups
 distr:  one band on NCORES_PER_BAND=   6 cores,    4 groups


--------------------------------------------------------------------------------------------------------


 INCAR:
 POTCAR:    PAW_PBE Ni 02Aug2007                  
 POTCAR:    PAW_PBE Br 06Sep2000                  
 POTCAR:    PAW_PBE Ni 02Aug2007                  
   VRHFIN =Ni:                                                                  
   LEXCH  = PE                                                                  
   EATOM  =  1077.6739 eV,   79.2068 Ry                                         
                                                                                
   TITEL  = PAW_PBE Ni 02Aug2007                                                
   LULTRA =        F    use ultrasoft PP ?                                      
   IUNSCR =        1    unscreen: 0-lin 1-nonlin 2-no                           
   RPACOR =    2.000    partial core radius                                     
   POMASS =   58.690; ZVAL   =   10.000    mass and valenz                      
   RCORE  =    2.300    outmost cutoff radius                                   
   RWIGS  =    2.430; RWIGS  =    1.286    wigner-seitz radius (au A)           
   ENMAX  =  269.532; ENMIN  =  202.149 eV                                      
   RCLOC  =    1.201    cutoff for local pot                                    
   LCOR   =        T    correct aug charges                                     
   LPAW   =        T    paw PP                                                  
   EAUG   =  544.565                                                            
   DEXC   =    0.000                                                            
   RMAX   =    2.357    core radius for proj-oper                               
   RAUG   =    1.300    factor for augmentation sphere                          
   RDEP   =    2.390    radius for radial grids                                 
   RDEPT  =    1.838    core radius for aug-charge                              
                                                                                
   Atomic configuration                                                         
    9 entries                                                                   
     n  l   j            E        occ.                                          
     1  0  0.50     -8206.4253   2.0000                                         
     2  0  0.50      -976.1748   2.0000                                         
     2  1  1.50      -839.0571   6.0000                                         
     3  0  0.50      -105.9991   2.0000                                         
     3  1  1.50       -66.4603   6.0000                                         
     3  2  2.50        -4.6458   9.0000                                         
     4  0  0.50        -4.4926   1.0000                                         
     4  1  1.50        -4.0817   0.0000                                         
     4  3  2.50        -1.3606   0.0000                                         
   Description                                                                  
     l       E           TYP  RCUT    TYP  RCUT                                 
     2     -4.6457903     23  2.300                                             
     2     -6.0063729     23  2.300                                             
     0     -4.4925590     23  2.300                                             
     0      5.0102601     23  2.300                                             
     1     -2.7211652     23  2.300                                             
     1     16.5183231     23  2.300                                             
  local pseudopotential read in
  partial core-charges read in
  partial kinetic energy density read in
  atomic valenz-charges read in
  non local Contribution for L=           2  read in
    real space projection operators read in
  non local Contribution for L=           2  read in
    real space projection operators read in
  non local Contribution for L=           0  read in
    real space projection operators read in
  non local Contribution for L=           0  read in
    real space projection operators read in
  non local Contribution for L=           1  read in
    real space projection operators read in
  non local Contribution for L=           1  read in
    real space projection operators read in
    PAW grid and wavefunctions read in
 
   number of l-projection  operators is LMAX  =           6
   number of lm-projection operators is LMMAX =          18
 
 POTCAR:    PAW_PBE Br 06Sep2000                  
   VRHFIN =Br: s2p5                                                             
   LEXCH  = PE                                                                  
   EATOM  =   368.4488 eV,   27.0802 Ry                                         
                                                                                
   TITEL  = PAW_PBE Br 06Sep2000                                                
   LULTRA =        F    use ultrasoft PP ?                                      
   IUNSCR =        1    unscreen: 0-lin 1-nonlin 2-no                           
   RPACOR =    1.900    partial core radius                                     
   POMASS =   79.904; ZVAL   =    7.000    mass and valenz                      
   RCORE  =    2.100    outmost cutoff radius                                   
   RWIGS  =    2.200; RWIGS  =    1.164    wigner-seitz radius (au A)           
   ENMAX  =  216.285; ENMIN  =  162.214 eV                                      
   ICORE  =        3    local potential                                         
   LCOR   =        T    correct aug charges                                     
   LPAW   =        T    paw PP                                                  
   EAUG   =  503.852                                                            
   DEXC   =    0.000                                                            
   RMAX   =    2.139    core radius for proj-oper                               
   RAUG   =    1.300    factor for augmentation sphere                          
   RDEP   =    2.186    radius for radial grids                                 
   RDEPT  =    1.890    core radius for aug-charge                              
                                                                                
   Atomic configuration                                                         
   10 entries                                                                   
     n  l   j            E        occ.                                          
     1  0  0.50    -13316.2796   2.0000                                         
     2  0  0.50     -1732.8239   2.0000                                         
     2  1  1.50     -1528.2193   6.0000                                         
     3  0  0.50      -238.0460   2.0000                                         
     3  1  1.50      -173.4609   6.0000                                         
     3  2  2.50       -66.7132  10.0000                                         
     4  0  0.50       -20.1334   2.0000                                         
     4  1  0.50        -7.8591   5.0000                                         
     4  2  2.50        -8.1635   0.0000                                         
     4  3  2.50        -8.1635   0.0000                                         
   Description                                                                  
     l       E           TYP  RCUT    TYP  RCUT                                 
     0    -20.1333652     23  2.100                                             
     0    -21.4939478     23  2.100                                             
     1     -7.8591052     23  2.100                                             
     1     -3.1608434     23  2.100                                             
     2     -8.1634956     23  2.100                                             
     3     -1.3605826      7  2.100                                             
  local pseudopotential read in
  partial core-charges read in
  partial kinetic energy density read in
  atomic valenz-charges read in
  non local Contribution for L=           0  read in
    real space projection operators read in
  non local Contribution for L=           0  read in
    real space projection operators read in
  non local Contribution for L=           1  read in
    real space projection operators read in
  non local Contribution for L=           1  read in
    real space projection operators read in
  non local Contribution for L=           2  read in
    real space projection operators read in
    PAW grid and wavefunctions read in
 
   number of l-projection  operators is LMAX  =           5
   number of lm-projection operators is LMMAX =          13
 
  PAW_PBE Ni 02Aug2007                  :
 energy of atom  1       EATOM=-1077.6739
 kinetic energy error for atom=    0.0030 (will be added to EATOM!!)
  PAW_PBE Br 06Sep2000                  :
 energy of atom  2       EATOM= -368.4488
 kinetic energy error for atom=    0.0011 (will be added to EATOM!!)
 
 
 POSCAR: NiBr2                                   
  positions in direct lattice
  velocities in cartesian coordinates
 exchange correlation table for  LEXCH =        8
   RHO(1)=    0.500       N(1)  =     2000
   RHO(2)=  100.500       N(2)  =     4000
 


--------------------------------------------------------------------------------------------------------


 ion  position               nearest neighbor table
   1  0.000  0.000  0.500-   2 2.57   3 2.57   3 2.57   2 2.57   3 2.57   2 2.57
   2  0.667  0.333  0.563-   1 2.57   1 2.57   1 2.57
   3  0.333  0.667  0.437-   1 2.57   1 2.57   1 2.57
 
  LATTYP: Found a hexagonal cell.
 ALAT       =     3.7000002360
 C/A-ratio  =     6.1629843003
  
  Lattice vectors:
  
 A1 = (   3.7000000477,   0.0000000000,   0.0000000000)
 A2 = (  -1.8499993587,   3.2042938687,   0.0000000000)
 A3 = (   0.0000000000,   0.0000000000,  22.8030433655)


Analysis of symmetry for initial positions (statically):
=====================================================================
 Subroutine PRICEL returns:
 Original cell was already a primitive cell.
 

 Routine SETGRP: Setting up the symmetry group for a 
 hexagonal supercell.


 Subroutine GETGRP returns: Found 12 space group operations
 (whereof 12 operations were pure point group operations)
 out of a pool of 24 trial point group operations.


The static configuration has the point symmetry D_3d.


Analysis of symmetry for dynamics (positions and initial velocities):
=====================================================================
 Subroutine PRICEL returns:
 Original cell was already a primitive cell.
 

 Routine SETGRP: Setting up the symmetry group for a 
 hexagonal supercell.


 Subroutine GETGRP returns: Found 12 space group operations
 (whereof 12 operations were pure point group operations)
 out of a pool of 24 trial point group operations.


The dynamic configuration has the point symmetry D_3d.


Analysis of structural, dynamic, and magnetic symmetry:
=====================================================================
 Subroutine PRICEL returns:
 Original cell was already a primitive cell.
 

 Routine SETGRP: Setting up the symmetry group for a 
 hexagonal supercell.


 Subroutine GETGRP returns: Found 12 space group operations
 (whereof 12 operations were pure point group operations)
 out of a pool of 24 trial point group operations.


The magnetic configuration has the point symmetry D_3d.


 Subroutine INISYM returns: Found 12 space group operations
 (whereof 12 operations are pure point group operations),
 and found     1 'primitive' translations

 
 
 KPOINTS: Hexagonal M-K-G-M                       
  interpolating k-points between supplied coordinates
  k-points in reciprocal lattice
Space group operators:
 irot       det(A)        alpha          n_x          n_y          n_z        tau_x        tau_y        tau_z
    1     1.000000     0.000000     1.000000     0.000000     0.000000     0.000000     0.000000     0.000000
    2    -1.000000     0.000000     1.000000     0.000000     0.000000     0.000000     0.000000     0.000000
    3     1.000000   120.000000     0.000000     0.000000    -1.000000     0.000000     0.000000     0.000000
    4    -1.000000   120.000000     0.000000     0.000000    -1.000000     0.000000     0.000000     0.000000
    5     1.000000   120.000000     0.000000     0.000000     1.000000     0.000000     0.000000     0.000000
    6    -1.000000   120.000000     0.000000     0.000000     1.000000     0.000000     0.000000     0.000000
    7     1.000000   180.000000     1.000000    -0.000000     0.000000     0.000000     0.000000     0.000000
    8    -1.000000   180.000000     1.000000    -0.000000     0.000000     0.000000     0.000000     0.000000
    9     1.000000   180.000000     0.500000    -0.866025     0.000000     0.000000     0.000000     0.000000
   10    -1.000000   180.000000     0.500000    -0.866025     0.000000     0.000000     0.000000     0.000000
   11     1.000000   180.000000    -0.500000    -0.866025     0.000000     0.000000     0.000000     0.000000
   12    -1.000000   180.000000    -0.500000    -0.866025     0.000000     0.000000     0.000000     0.000000


--------------------------------------------------------------------------------------------------------




 Dimension of arrays:
   k-points           NKPTS =     90   k-points in BZ     NKDIM =     90   number of bands    NBANDS=     20
   number of dos      NEDOS =    301   number of ions     NIONS =      3
   non local maximal  LDIM  =      6   non local SUM 2l+1 LMDIM =     18
   total plane-waves  NPLWV =  50400
   max r-space proj   IRMAX =      1   max aug-charges    IRDMAX=   6989
   dimension x,y,z NGX =    20 NGY =   20 NGZ =  126
   dimension x,y,z NGXF=    40 NGYF=   40 NGZF=  252
   support grid    NGXF=    40 NGYF=   40 NGZF=  252
   ions per type =               1   2
 NGX,Y,Z   is equivalent  to a cutoff of   8.99,  8.99,  9.19 a.u.
 NGXF,Y,Z  is equivalent  to a cutoff of  17.97, 17.97, 18.37 a.u.


 I would recommend the setting:
   dimension x,y,z NGX =    20 NGY =   20 NGZ =  125
 SYSTEM =  unknown system                          
 POSCAR =  NiBr2                                   

 Startparameter for this run:
   NWRITE =      2    write-flag & timer
   PREC   = normal    normal or accurate (medium, high low for compatibility)
   ISTART =      0    job   : 0-new  1-cont  2-samecut
   ICHARG =     11    charge: 1-file 2-atom 10-const
   ISPIN  =      2    spin polarized calculation?
   LNONCOLLINEAR =      F non collinear calculations
   LSORBIT =      F    spin-orbit coupling
   INIWAV =      1    electr: 0-lowe 1-rand  2-diag
   LASPH  =      F    aspherical Exc in radial PAW
   METAGGA=      F    non-selfconsistent MetaGGA calc.

 Electronic Relaxation 1
   ENCUT  =  500.0 eV  36.75 Ry    6.06 a.u.   6.75  6.75 41.58*2*pi/ulx,y,z
   ENINI  =  500.0     initial cutoff
   ENAUG  =  544.6 eV  augmentation charge cutoff
   NELM   =    300;   NELMIN=  2; NELMDL= -5     # of ELM steps 
   EDIFF  = 0.1E-05   stopping-criterion for ELM
   LREAL  =      F    real-space projection
   NLSPLINE    = F    spline interpolate recip. space projectors
   LCOMPAT=      F    compatible to vasp.4.4
   GGA_COMPAT  = T    GGA compatible to vasp.4.4-vasp.4.6
   LMAXPAW     = -100 max onsite density
   LMAXMIX     =    4 max onsite mixed and CHGCAR
   VOSKOWN=      0    Vosko Wilk Nusair interpolation
   ROPT   =    0.00000   0.00000
 Ionic relaxation
   EDIFFG = 0.1E-04   stopping-criterion for IOM
   NSW    =      0    number of steps for IOM
   NBLOCK =      1;   KBLOCK =      1    inner block; outer block 
   IBRION =     -1    ionic relax: 0-MD 1-quasi-New 2-CG
   NFREE  =      0    steps in history (QN), initial steepest desc. (CG)
   ISIF   =      2    stress and relaxation
   IWAVPR =     10    prediction:  0-non 1-charg 2-wave 3-comb
   ISYM   =      2    0-nonsym 1-usesym 2-fastsym
   LCORR  =      T    Harris-Foulkes like correction to forces

   POTIM  = 0.5000    time-step for ionic-motion
   TEIN   =    0.0    initial temperature
   TEBEG  =    0.0;   TEEND  =   0.0 temperature during run
   SMASS  =  -3.00    Nose mass-parameter (am)
   estimated Nose-frequenzy (Omega)   =  0.10E-29 period in steps =****** mass=  -0.313E-27a.u.
   SCALEE = 1.0000    scale energy and forces
   NPACO  =    256;   APACO  = 16.0  distance and # of slots for P.C.
   PSTRESS=    0.0 pullay stress

  Mass of Ions in am
   POMASS =  58.69 79.90
  Ionic Valenz
   ZVAL   =  10.00  7.00
  Atomic Wigner-Seitz radii
   RWIGS  =  -1.00 -1.00
  virtual crystal weights 
   VCA    =   1.00  1.00
   NELECT =      24.0000    total number of electrons
   NUPDOWN=      -1.0000    fix difference up-down

 DOS related values:
   EMIN   =  10.00;   EMAX   =-10.00  energy-range for DOS
   EFERMI =   0.00
   ISMEAR =     0;   SIGMA  =   0.05  broadening in eV -4-tet -1-fermi 0-gaus

 Electronic relaxation 2 (details)
   IALGO  =     38    algorithm
   LDIAG  =      T    sub-space diagonalisation (order eigenvalues)
   LSUBROT=      F    optimize rotation matrix (better conditioning)
   TURBO    =      0    0=normal 1=particle mesh
   IRESTART =      0    0=no restart 2=restart with 2 vectors
   NREBOOT  =      0    no. of reboots
   NMIN     =      0    reboot dimension
   EREF     =   0.00    reference energy to select bands
   IMIX   =      4    mixing-type and parameters
     AMIX     =   0.40;   BMIX     =  1.00
     AMIX_MAG =   1.60;   BMIX_MAG =  1.00
     AMIN     =   0.10
     WC   =   100.;   INIMIX=   1;  MIXPRE=   1;  MAXMIX= -45

 Intra band minimization:
   WEIMIN = 0.0000     energy-eigenvalue tresh-hold
   EBREAK =  0.12E-07  absolut break condition
   DEPER  =   0.30     relativ break condition  

   TIME   =   0.40     timestep for ELM

  volume/ion in A,a.u.               =      90.12       608.14
  Fermi-wavevector in a.u.,A,eV,Ry     =   0.730303  1.380072  7.256560  0.533342
  Thomas-Fermi vector in A             =   1.822239
 
 Write flags
   LWAVE  =      F    write WAVECAR
   LCHARG =      F    write CHGCAR
   LVTOT  =      F    write LOCPOT, total local potential
   LVHAR  =      F    write LOCPOT, Hartree potential only
   LELF   =      F    write electronic localiz. function (ELF)
   LORBIT =     11    0 simple, 1 ext, 2 COOP (PROOUT)


 Dipole corrections
   LMONO  =      F    monopole corrections only (constant potential shift)
   LDIPOL =      F    correct potential (dipole corrections)
   IDIPOL =      0    1-x, 2-y, 3-z, 4-all directions 
   EPSILON=  1.0000000 bulk dielectric constant

 LDA+U is selected, type is set to LDAUTYPE =  2
   angular momentum for each species LDAUL =     2   -1
   U (eV)           for each species LDAUU =   4.0  0.0
   J (eV)           for each species LDAUJ =   0.0  0.0
 Exchange correlation treatment:
   GGA     =    --    GGA type
   LEXCH   =     8    internal setting for exchange type
   VOSKOWN=      0    Vosko Wilk Nusair interpolation
   LHFCALC =     F    Hartree Fock is set to
   LHFONE  =     F    Hartree Fock one center treatment
   AEXX    =    0.0000 exact exchange contribution

 Linear response parameters
   LEPSILON=     F    determine dielectric tensor
   LRPA    =     F    only Hartree local field effects (RPA)
   LNABLA  =     F    use nabla operator in PAW spheres
   LVEL    =     F    velocity operator in full k-point grid
   LINTERFAST=   F  fast interpolation
   KINTER  =     0    interpolate to denser k-point grid
   CSHIFT  =0.1000    complex shift for real part using Kramers Kronig
   OMEGAMAX=  -1.0    maximum frequency
   DEG_THRESHOLD= 0.2000000E-02 threshold for treating states as degnerate
   RTIME   =    0.100 relaxation time in fs

 Orbital magnetization related:
   ORBITALMAG=     F  switch on orbital magnetization
   LCHIMAG   =     F  perturbation theory with respect to B field
   DQ        =  0.001000  dq finite difference perturbation B field



--------------------------------------------------------------------------------------------------------


 Static calculation
 charge density and potential remain constant during run
 spin polarized calculation
 Variant of blocked Davidson
 Davidson routine will perform the subspace rotation
 perform sub-space diagonalisation
    after iterative eigenvector-optimisation
 no mixing
 using additional bands            8
 reciprocal scheme for non local part
 use partial core corrections
 calculate Harris-corrections to forces 
   (improved forces if not selfconsistent)
 use gradient corrections 
 WARNING: stress and forces are not correct
  (second derivative of E(xc) not defined)
 use of overlap-Matrix (Vanderbilt PP)
 Gauss-broadening in eV      SIGMA  =   0.05


--------------------------------------------------------------------------------------------------------


  energy-cutoff  :      500.00
  volume of cell :      270.35
      direct lattice vectors                 reciprocal lattice vectors
     3.700000048  0.000000000  0.000000000     0.270270267  0.156040563  0.000000000
    -1.849999359  3.204293869  0.000000000     0.000000000  0.312081239  0.000000000
     0.000000000  0.000000000 22.803043365     0.000000000  0.000000000  0.043853795

  length of vectors
     3.700000048  3.699999571 22.803043365     0.312081199  0.312081239  0.043853795


 
 k-points in units of 2pi/SCALE and weight: Hexagonal M-K-G-M                       
   0.00000000  0.00000000  0.00000000       0.011
   0.00310655  0.00538071  0.00000000       0.011
   0.00621311  0.01076142  0.00000000       0.011
   0.00931966  0.01614213  0.00000000       0.011
   0.01242622  0.02152284  0.00000000       0.011
   0.01553277  0.02690355  0.00000000       0.011
   0.01863933  0.03228426  0.00000000       0.011
   0.02174588  0.03766497  0.00000000       0.011
   0.02485244  0.04304568  0.00000000       0.011
   0.02795899  0.04842639  0.00000000       0.011
   0.03106555  0.05380710  0.00000000       0.011
   0.03417210  0.05918781  0.00000000       0.011
   0.03727866  0.06456852  0.00000000       0.011
   0.04038521  0.06994923  0.00000000       0.011
   0.04349177  0.07532995  0.00000000       0.011
   0.04659832  0.08071066  0.00000000       0.011
   0.04970488  0.08609137  0.00000000       0.011
   0.05281143  0.09147208  0.00000000       0.011
   0.05591799  0.09685279  0.00000000       0.011
   0.05902454  0.10223350  0.00000000       0.011
   0.06213110  0.10761421  0.00000000       0.011
   0.06523765  0.11299492  0.00000000       0.011
   0.06834421  0.11837563  0.00000000       0.011
   0.07145076  0.12375634  0.00000000       0.011
   0.07455731  0.12913705  0.00000000       0.011
   0.07766387  0.13451776  0.00000000       0.011
   0.08077042  0.13989847  0.00000000       0.011
   0.08387698  0.14527918  0.00000000       0.011
   0.08698353  0.15065989  0.00000000       0.011
   0.09009009  0.15604060  0.00000000       0.011
   0.09009009  0.15604060  0.00000000       0.011
   0.09164337  0.15335024  0.00000000       0.011
   0.09319664  0.15065989  0.00000000       0.011
   0.09474992  0.14796953  0.00000000       0.011
   0.09630320  0.14527918  0.00000000       0.011
   0.09785648  0.14258882  0.00000000       0.011
   0.09940975  0.13989847  0.00000000       0.011
   0.10096303  0.13720811  0.00000000       0.011
   0.10251631  0.13451775  0.00000000       0.011
   0.10406959  0.13182740  0.00000000       0.011
   0.10562286  0.12913704  0.00000000       0.011
   0.10717614  0.12644669  0.00000000       0.011
   0.10872942  0.12375633  0.00000000       0.011
   0.11028270  0.12106597  0.00000000       0.011
   0.11183597  0.11837562  0.00000000       0.011
   0.11338925  0.11568526  0.00000000       0.011
   0.11494253  0.11299491  0.00000000       0.011
   0.11649580  0.11030455  0.00000000       0.011
   0.11804908  0.10761420  0.00000000       0.011
   0.11960236  0.10492384  0.00000000       0.011
   0.12115564  0.10223348  0.00000000       0.011
   0.12270891  0.09954313  0.00000000       0.011
   0.12426219  0.09685277  0.00000000       0.011
   0.12581547  0.09416242  0.00000000       0.011
   0.12736875  0.09147206  0.00000000       0.011
   0.12892202  0.08878170  0.00000000       0.011
   0.13047530  0.08609135  0.00000000       0.011
   0.13202858  0.08340099  0.00000000       0.011
   0.13358186  0.08071064  0.00000000       0.011
   0.13513513  0.07802028  0.00000000       0.011
   0.13513513  0.07802028  0.00000000       0.011
   0.13047530  0.07532993  0.00000000       0.011
   0.12581547  0.07263957  0.00000000       0.011
   0.12115564  0.06994922  0.00000000       0.011
   0.11649580  0.06725886  0.00000000       0.011
   0.11183597  0.06456851  0.00000000       0.011
   0.10717614  0.06187815  0.00000000       0.011
   0.10251631  0.05918780  0.00000000       0.011
   0.09785648  0.05649745  0.00000000       0.011
   0.09319664  0.05380709  0.00000000       0.011
   0.08853681  0.05111674  0.00000000       0.011
   0.08387698  0.04842638  0.00000000       0.011
   0.07921715  0.04573603  0.00000000       0.011
   0.07455731  0.04304567  0.00000000       0.011
   0.06989748  0.04035532  0.00000000       0.011
   0.06523765  0.03766496  0.00000000       0.011
   0.06057782  0.03497461  0.00000000       0.011
   0.05591799  0.03228425  0.00000000       0.011
   0.05125815  0.02959390  0.00000000       0.011
   0.04659832  0.02690355  0.00000000       0.011
   0.04193849  0.02421319  0.00000000       0.011
   0.03727866  0.02152284  0.00000000       0.011
   0.03261883  0.01883248  0.00000000       0.011
   0.02795899  0.01614213  0.00000000       0.011
   0.02329916  0.01345177  0.00000000       0.011
   0.01863933  0.01076142  0.00000000       0.011
   0.01397950  0.00807106  0.00000000       0.011
   0.00931966  0.00538071  0.00000000       0.011
   0.00465983  0.00269035  0.00000000       0.011
   0.00000000  0.00000000  0.00000000       0.011
 
 k-points in reciprocal lattice and weights: Hexagonal M-K-G-M                       
   0.00000000  0.00000000  0.00000000       0.011
   0.01149425  0.01149425  0.00000000       0.011
   0.02298851  0.02298851  0.00000000       0.011
   0.03448276  0.03448276  0.00000000       0.011
   0.04597701  0.04597701  0.00000000       0.011
   0.05747126  0.05747126  0.00000000       0.011
   0.06896552  0.06896552  0.00000000       0.011
   0.08045977  0.08045977  0.00000000       0.011
   0.09195402  0.09195402  0.00000000       0.011
   0.10344828  0.10344828  0.00000000       0.011
   0.11494253  0.11494253  0.00000000       0.011
   0.12643678  0.12643678  0.00000000       0.011
   0.13793103  0.13793103  0.00000000       0.011
   0.14942529  0.14942529  0.00000000       0.011
   0.16091954  0.16091954  0.00000000       0.011
   0.17241379  0.17241379  0.00000000       0.011
   0.18390805  0.18390805  0.00000000       0.011
   0.19540230  0.19540230  0.00000000       0.011
   0.20689655  0.20689655  0.00000000       0.011
   0.21839080  0.21839080  0.00000000       0.011
   0.22988506  0.22988506  0.00000000       0.011
   0.24137931  0.24137931  0.00000000       0.011
   0.25287356  0.25287356  0.00000000       0.011
   0.26436782  0.26436782  0.00000000       0.011
   0.27586207  0.27586207  0.00000000       0.011
   0.28735632  0.28735632  0.00000000       0.011
   0.29885057  0.29885057  0.00000000       0.011
   0.31034483  0.31034483  0.00000000       0.011
   0.32183908  0.32183908  0.00000000       0.011
   0.33333333  0.33333333  0.00000000       0.011
   0.33333333  0.33333333  0.00000000       0.011
   0.33908046  0.32183908  0.00000000       0.011
   0.34482759  0.31034483  0.00000000       0.011
   0.35057471  0.29885057  0.00000000       0.011
   0.35632184  0.28735632  0.00000000       0.011
   0.36206897  0.27586207  0.00000000       0.011
   0.36781609  0.26436782  0.00000000       0.011
   0.37356322  0.25287356  0.00000000       0.011
   0.37931034  0.24137931  0.00000000       0.011
   0.38505747  0.22988506  0.00000000       0.011
   0.39080460  0.21839080  0.00000000       0.011
   0.39655172  0.20689655  0.00000000       0.011
   0.40229885  0.19540230  0.00000000       0.011
   0.40804598  0.18390805  0.00000000       0.011
   0.41379310  0.17241379  0.00000000       0.011
   0.41954023  0.16091954  0.00000000       0.011
   0.42528736  0.14942529  0.00000000       0.011
   0.43103448  0.13793103  0.00000000       0.011
   0.43678161  0.12643678  0.00000000       0.011
   0.44252874  0.11494253  0.00000000       0.011
   0.44827586  0.10344828  0.00000000       0.011
   0.45402299  0.09195402  0.00000000       0.011
   0.45977011  0.08045977  0.00000000       0.011
   0.46551724  0.06896552  0.00000000       0.011
   0.47126437  0.05747126  0.00000000       0.011
   0.47701149  0.04597701  0.00000000       0.011
   0.48275862  0.03448276  0.00000000       0.011
   0.48850575  0.02298851  0.00000000       0.011
   0.49425287  0.01149425  0.00000000       0.011
   0.50000000  0.00000000  0.00000000       0.011
   0.50000000  0.00000000  0.00000000       0.011
   0.48275862  0.00000000  0.00000000       0.011
   0.46551724  0.00000000  0.00000000       0.011
   0.44827586  0.00000000  0.00000000       0.011
   0.43103448  0.00000000  0.00000000       0.011
   0.41379310  0.00000000  0.00000000       0.011
   0.39655172  0.00000000  0.00000000       0.011
   0.37931034  0.00000000  0.00000000       0.011
   0.36206897  0.00000000  0.00000000       0.011
   0.34482759  0.00000000  0.00000000       0.011
   0.32758621  0.00000000  0.00000000       0.011
   0.31034483  0.00000000  0.00000000       0.011
   0.29310345  0.00000000  0.00000000       0.011
   0.27586207  0.00000000  0.00000000       0.011
   0.25862069  0.00000000  0.00000000       0.011
   0.24137931  0.00000000  0.00000000       0.011
   0.22413793  0.00000000  0.00000000       0.011
   0.20689655  0.00000000  0.00000000       0.011
   0.18965517  0.00000000  0.00000000       0.011
   0.17241379  0.00000000  0.00000000       0.011
   0.15517241  0.00000000  0.00000000       0.011
   0.13793103  0.00000000  0.00000000       0.011
   0.12068966  0.00000000  0.00000000       0.011
   0.10344828  0.00000000  0.00000000       0.011
   0.08620690  0.00000000  0.00000000       0.011
   0.06896552  0.00000000  0.00000000       0.011
   0.05172414  0.00000000  0.00000000       0.011
   0.03448276  0.00000000  0.00000000       0.011
   0.01724138  0.00000000  0.00000000       0.011
   0.00000000  0.00000000  0.00000000       0.011
 
 position of ions in fractional coordinates (direct lattice) 
   0.00000000  0.00000000  0.50000000
   0.66666597  0.33333299  0.56260310
   0.33333397  0.66666698  0.43739690
 
 position of ions in cartesian coordinates  (Angst):
   0.00000000  0.00000000 11.40152168
   1.84999831  1.06809684 12.82906290
   0.00000221  2.13619693  9.97398047
 


--------------------------------------------------------------------------------------------------------


 k-point  1 :   0.0000 0.0000 0.0000  plane waves:    6875
 k-point  2 :   0.0115 0.0115 0.0000  plane waves:    6869
 k-point  3 :   0.0230 0.0230 0.0000  plane waves:    6877
 k-point  4 :   0.0345 0.0345 0.0000  plane waves:    6873
 k-point  5 :   0.0460 0.0460 0.0000  plane waves:    6881
 k-point  6 :   0.0575 0.0575 0.0000  plane waves:    6879
 k-point  7 :   0.0690 0.0690 0.0000  plane waves:    6869
 k-point  8 :   0.0805 0.0805 0.0000  plane waves:    6869
 k-point  9 :   0.0920 0.0920 0.0000  plane waves:    6875
 k-point 10 :   0.1034 0.1034 0.0000  plane waves:    6859
 k-point 11 :   0.1149 0.1149 0.0000  plane waves:    6871
 k-point 12 :   0.1264 0.1264 0.0000  plane waves:    6859
 k-point 13 :   0.1379 0.1379 0.0000  plane waves:    6855
 k-point 14 :   0.1494 0.1494 0.0000  plane waves:    6877
 k-point 15 :   0.1609 0.1609 0.0000  plane waves:    6867
 k-point 16 :   0.1724 0.1724 0.0000  plane waves:    6855
 k-point 17 :   0.1839 0.1839 0.0000  plane waves:    6855
 k-point 18 :   0.1954 0.1954 0.0000  plane waves:    6865
 k-point 19 :   0.2069 0.2069 0.0000  plane waves:    6865
 k-point 20 :   0.2184 0.2184 0.0000  plane waves:    6849
 k-point 21 :   0.2299 0.2299 0.0000  plane waves:    6851
 k-point 22 :   0.2414 0.2414 0.0000  plane waves:    6849
 k-point 23 :   0.2529 0.2529 0.0000  plane waves:    6855
 k-point 24 :   0.2644 0.2644 0.0000  plane waves:    6853
 k-point 25 :   0.2759 0.2759 0.0000  plane waves:    6867
 k-point 26 :   0.2874 0.2874 0.0000  plane waves:    6871
 k-point 27 :   0.2989 0.2989 0.0000  plane waves:    6845
 k-point 28 :   0.3103 0.3103 0.0000  plane waves:    6877
 k-point 29 :   0.3218 0.3218 0.0000  plane waves:    6871
 k-point 30 :   0.3333 0.3333 0.0000  plane waves:    6867
 k-point 31 :   0.3333 0.3333 0.0000  plane waves:    6867
 k-point 32 :   0.3391 0.3218 0.0000  plane waves:    6867
 k-point 33 :   0.3448 0.3103 0.0000  plane waves:    6871
 k-point 34 :   0.3506 0.2989 0.0000  plane waves:    6863
 k-point 35 :   0.3563 0.2874 0.0000  plane waves:    6867
 k-point 36 :   0.3621 0.2759 0.0000  plane waves:    6861
 k-point 37 :   0.3678 0.2644 0.0000  plane waves:    6885
 k-point 38 :   0.3736 0.2529 0.0000  plane waves:    6860
 k-point 39 :   0.3793 0.2414 0.0000  plane waves:    6860
 k-point 40 :   0.3851 0.2299 0.0000  plane waves:    6872
 k-point 41 :   0.3908 0.2184 0.0000  plane waves:    6876
 k-point 42 :   0.3966 0.2069 0.0000  plane waves:    6872
 k-point 43 :   0.4023 0.1954 0.0000  plane waves:    6872
 k-point 44 :   0.4080 0.1839 0.0000  plane waves:    6876
 k-point 45 :   0.4138 0.1724 0.0000  plane waves:    6880
 k-point 46 :   0.4195 0.1609 0.0000  plane waves:    6874
 k-point 47 :   0.4253 0.1494 0.0000  plane waves:    6870
 k-point 48 :   0.4310 0.1379 0.0000  plane waves:    6870
 k-point 49 :   0.4368 0.1264 0.0000  plane waves:    6872
 k-point 50 :   0.4425 0.1149 0.0000  plane waves:    6886
 k-point 51 :   0.4483 0.1034 0.0000  plane waves:    6878
 k-point 52 :   0.4540 0.0920 0.0000  plane waves:    6872
 k-point 53 :   0.4598 0.0805 0.0000  plane waves:    6874
 k-point 54 :   0.4655 0.0690 0.0000  plane waves:    6876
 k-point 55 :   0.4713 0.0575 0.0000  plane waves:    6888
 k-point 56 :   0.4770 0.0460 0.0000  plane waves:    6904
 k-point 57 :   0.4828 0.0345 0.0000  plane waves:    6904
 k-point 58 :   0.4885 0.0230 0.0000  plane waves:    6892
 k-point 59 :   0.4943 0.0115 0.0000  plane waves:    6886
 k-point 60 :   0.5000 0.0000 0.0000  plane waves:    6878
 k-point 61 :   0.5000 0.0000 0.0000  plane waves:    6878
 k-point 62 :   0.4828 0.0000 0.0000  plane waves:    6888
 k-point 63 :   0.4655 0.0000 0.0000  plane waves:    6884
 k-point 64 :   0.4483 0.0000 0.0000  plane waves:    6872
 k-point 65 :   0.4310 0.0000 0.0000  plane waves:    6878
 k-point 66 :   0.4138 0.0000 0.0000  plane waves:    6870
 k-point 67 :   0.3966 0.0000 0.0000  plane waves:    6874
 k-point 68 :   0.3793 0.0000 0.0000  plane waves:    6872
 k-point 69 :   0.3621 0.0000 0.0000  plane waves:    6862
 k-point 70 :   0.3448 0.0000 0.0000  plane waves:    6866
 k-point 71 :   0.3276 0.0000 0.0000  plane waves:    6856
 k-point 72 :   0.3103 0.0000 0.0000  plane waves:    6854
 k-point 73 :   0.2931 0.0000 0.0000  plane waves:    6842
 k-point 74 :   0.2759 0.0000 0.0000  plane waves:    6852
 k-point 75 :   0.2586 0.0000 0.0000  plane waves:    6852
 k-point 76 :   0.2414 0.0000 0.0000  plane waves:    6864
 k-point 77 :   0.2241 0.0000 0.0000  plane waves:    6864
 k-point 78 :   0.2069 0.0000 0.0000  plane waves:    6862
 k-point 79 :   0.1897 0.0000 0.0000  plane waves:    6870
 k-point 80 :   0.1724 0.0000 0.0000  plane waves:    6860
 k-point 81 :   0.1552 0.0000 0.0000  plane waves:    6863
 k-point 82 :   0.1379 0.0000 0.0000  plane waves:    6857
 k-point 83 :   0.1207 0.0000 0.0000  plane waves:    6869
 k-point 84 :   0.1034 0.0000 0.0000  plane waves:    6871
 k-point 85 :   0.0862 0.0000 0.0000  plane waves:    6883
 k-point 86 :   0.0690 0.0000 0.0000  plane waves:    6881
 k-point 87 :   0.0517 0.0000 0.0000  plane waves:    6873
 k-point 88 :   0.0345 0.0000 0.0000  plane waves:    6879
 k-point 89 :   0.0172 0.0000 0.0000  plane waves:    6871
 k-point 90 :   0.0000 0.0000 0.0000  plane waves:    6875

 maximum and minimum number of plane-waves per node :      1169     1115

 maximum number of plane-waves:      6904
 maximum index in each direction: 
   IXMAX=    6   IYMAX=    6   IZMAX=   41
   IXMIN=   -7   IYMIN=   -7   IZMIN=  -41

 WARNING: aliasing errors must be expected set NGX to  28 to avoid them
 WARNING: aliasing errors must be expected set NGY to  28 to avoid them
 WARNING: aliasing errors must be expected set NGZ to 166 to avoid them
 aliasing errors are usually negligible using standard VASP settings
 and one can safely disregard these warnings

 parallel 3D FFT for wavefunctions:
    minimum data exchange during FFTs selected (reduces bandwidth)
 parallel 3D FFT for charge:
    minimum data exchange during FFTs selected (reduces bandwidth)


 total amount of memory used by VASP on root node    81018. kBytes
========================================================================

   base      :      30000. kBytes
   nonl-proj :      30434. kBytes
   fftplans  :        957. kBytes
   grid      :       2432. kBytes
   one-center:         31. kBytes
   wavefun   :      17164. kBytes
 
     INWAV:  cpu time    0.0001: real time    0.0003
 initial charge density was supplied:
 number of electron      24.0000026 magnetization       2.0000046
 keeping initial charge density in first step


--------------------------------------------------------------------------------------------------------


 Maximum index for augmentation-charges          370 (set IRDMAX)


--------------------------------------------------------------------------------------------------------


 First call to EWALD:  gamma=   0.274
 Maximum number of real-space cells 5x 5x 1
 Maximum number of reciprocal cells 2x 2x 8

 FEWALD executed in parallel
    FEWALD:  cpu time    0.0015: real time    0.0015


----------------------------------------- Iteration    1(   1)  ---------------------------------------


    POTLOK:  cpu time    0.0265: real time    0.0269
    SETDIJ:  cpu time    0.0060: real time    0.0060
atom =   1  type =  1  l = 2
 
 onsite density matrix
 
spin component  1
 
  0.9753 -0.0000 -0.0000  0.0150  0.0000
 -0.0000  0.9850 -0.0000  0.0000  0.0150
 -0.0000 -0.0000  0.9651 -0.0000 -0.0000
  0.0150  0.0000 -0.0000  0.9850  0.0000
  0.0000  0.0150 -0.0000  0.0000  0.9753
 
spin component  2
 
  0.7142  0.0000 -0.0000 -0.3457  0.0000
  0.0000  0.4718  0.0000  0.0000 -0.3457
 -0.0000  0.0000  0.9602  0.0000 -0.0000
 -0.3457  0.0000  0.0000  0.4718 -0.0000
  0.0000 -0.3457 -0.0000 -0.0000  0.7142
 
 occupancies and eigenvectors
 
  o =  0.2267  v =  0.0000  0.0000  0.0000  0.0000  0.0000 -0.3559  0.6431 -0.0000 -0.5019  0.4560      0.0000  0.0000  0.0000  0.0000  0.0000  0.0000  0.0000  0.0000  0.0000  0.0000
  o =  0.2267  v =  0.0000  0.0000  0.0000  0.0000  0.0000  0.4560  0.5019  0.0000  0.6431  0.3559      0.0000  0.0000  0.0000  0.0000  0.0000  0.0000  0.0000  0.0000  0.0000  0.0000
  o =  0.9594  v =  0.0000  0.0000  0.0000  0.0000  0.0000 -0.5020 -0.4559 -0.0001  0.3559  0.6430      0.0000  0.0000  0.0000  0.0000  0.0000  0.0000  0.0000  0.0000  0.0000  0.0000
  o =  0.9594  v =  0.0000  0.0000  0.0000  0.0000  0.0000  0.6430 -0.3559  0.0002 -0.4559  0.5020      0.0000  0.0000  0.0000  0.0000  0.0000  0.0000  0.0000  0.0000  0.0000  0.0000
  o =  0.9602  v =  0.0000  0.0000  0.0000  0.0000  0.0000 -0.0002  0.0000  1.0000  0.0001 -0.0000      0.0000  0.0000  0.0000  0.0000  0.0000  0.0000  0.0000  0.0000  0.0000  0.0000
  o =  0.9644  v = -0.4972 -0.4644 -0.0001  0.3625  0.6369  0.0000  0.0000  0.0000  0.0000  0.0000      0.0000  0.0000  0.0000  0.0000  0.0000  0.0000  0.0000  0.0000  0.0000  0.0000
  o =  0.9644  v =  0.6369 -0.3625  0.0002 -0.4644  0.4972  0.0000  0.0000  0.0000  0.0000  0.0000      0.0000  0.0000  0.0000  0.0000  0.0000  0.0000  0.0000  0.0000  0.0000  0.0000
  o =  0.9651  v =  0.0002 -0.0000 -1.0000 -0.0002  0.0001  0.0000  0.0000  0.0000  0.0000  0.0000      0.0000  0.0000  0.0000  0.0000  0.0000  0.0000  0.0000  0.0000  0.0000  0.0000
  o =  0.9959  v =  0.3625 -0.6370 -0.0000  0.4971 -0.4645  0.0000  0.0000  0.0000  0.0000  0.0000      0.0000  0.0000  0.0000  0.0000  0.0000  0.0000  0.0000  0.0000  0.0000  0.0000
  o =  0.9959  v = -0.4645 -0.4971  0.0000 -0.6370 -0.3625  0.0000  0.0000  0.0000  0.0000  0.0000      0.0000  0.0000  0.0000  0.0000  0.0000  0.0000  0.0000  0.0000  0.0000  0.0000
     EDDAV:  cpu time    1.7857: real time    1.7863
       DOS:  cpu time    0.0023: real time    0.0023
    --------------------------------------------
      LOOP:  cpu time    1.8250: real time    1.8265

 eigenvalue-minimisations  :  7200
 total energy-change (2. order) : 0.1694802E+03  (-0.8229743E+03)
 number of electron      24.0000026 magnetization       2.0000046
 augmentation part       24.0000026 magnetization       2.0000046

 Free energy of the ion-electron system (eV)
  ---------------------------------------------------
  alpha Z        PSCENC =        16.10253336
  Ewald energy   TEWEN  =      4275.56302236
  -Hartree energ DENC   =     -5911.00686545
  -exchange      EXHF   =         0.00000000
  -V(xc)+E(xc)   XCENC  =        50.94570646
  PAW double counting   =      1868.63994431    -1909.34378768
  entropy T*S    EENTRO =        -0.00171119
  eigenvalues    EBANDS =       -35.98486001
  atomic energy  EATOM  =      1814.56626534
  Solvation  Ediel_sol  =         0.00000000
  ---------------------------------------------------
  free energy    TOTEN  =       169.48024751 eV

  energy without entropy =      169.48195870  energy(sigma->0) =      169.48110310


--------------------------------------------------------------------------------------------------------




----------------------------------------- Iteration    1(   2)  ---------------------------------------


     EDDAV:  cpu time    2.3057: real time    2.3058
       DOS:  cpu time    0.0022: real time    0.0022
    --------------------------------------------
      LOOP:  cpu time    2.3083: real time    2.3115

 eigenvalue-minimisations  : 10256
 total energy-change (2. order) :-0.1553505E+03  (-0.1503918E+03)
 number of electron      24.0000026 magnetization       2.0000046
 augmentation part       24.0000026 magnetization       2.0000046

 Free energy of the ion-electron system (eV)
  ---------------------------------------------------
  alpha Z        PSCENC =        16.10253336
  Ewald energy   TEWEN  =      4275.56302236
  -Hartree energ DENC   =     -5911.00686545
  -exchange      EXHF   =         0.00000000
  -V(xc)+E(xc)   XCENC  =        50.94570646
  PAW double counting   =      1868.63994431    -1909.34378768
  entropy T*S    EENTRO =        -0.00174532
  eigenvalues    EBANDS =      -191.33529665
  atomic energy  EATOM  =      1814.56626534
  Solvation  Ediel_sol  =         0.00000000
  ---------------------------------------------------
  free energy    TOTEN  =        14.12977674 eV

  energy without entropy =       14.13152206  energy(sigma->0) =       14.13064940


--------------------------------------------------------------------------------------------------------




----------------------------------------- Iteration    1(   3)  ---------------------------------------


     EDDAV:  cpu time    2.0106: real time    2.0113
       DOS:  cpu time    0.0012: real time    0.0015
    --------------------------------------------
      LOOP:  cpu time    2.0128: real time    2.0146

 eigenvalue-minimisations  :  8580
 total energy-change (2. order) :-0.2166711E+02  (-0.2126272E+02)
 number of electron      24.0000026 magnetization       2.0000046
 augmentation part       24.0000026 magnetization       2.0000046

 Free energy of the ion-electron system (eV)
  ---------------------------------------------------
  alpha Z        PSCENC =        16.10253336
  Ewald energy   TEWEN  =      4275.56302236
  -Hartree energ DENC   =     -5911.00686545
  -exchange      EXHF   =         0.00000000
  -V(xc)+E(xc)   XCENC  =        50.94570646
  PAW double counting   =      1868.63994431    -1909.34378768
  entropy T*S    EENTRO =        -0.00000000
  eigenvalues    EBANDS =      -213.00415156
  atomic energy  EATOM  =      1814.56626534
  Solvation  Ediel_sol  =         0.00000000
  ---------------------------------------------------
  free energy    TOTEN  =        -7.53733285 eV

  energy without entropy =       -7.53733285  energy(sigma->0) =       -7.53733285


--------------------------------------------------------------------------------------------------------




----------------------------------------- Iteration    1(   4)  ---------------------------------------


     EDDAV:  cpu time    2.0955: real time    2.0956
       DOS:  cpu time    0.0011: real time    0.0011
    --------------------------------------------
      LOOP:  cpu time    2.0972: real time    2.0987

 eigenvalue-minimisations  :  9152
 total energy-change (2. order) :-0.5282218E+00  (-0.5277548E+00)
 number of electron      24.0000026 magnetization       2.0000046
 augmentation part       24.0000026 magnetization       2.0000046

 Free energy of the ion-electron system (eV)
  ---------------------------------------------------
  alpha Z        PSCENC =        16.10253336
  Ewald energy   TEWEN  =      4275.56302236
  -Hartree energ DENC   =     -5911.00686545
  -exchange      EXHF   =         0.00000000
  -V(xc)+E(xc)   XCENC  =        50.94570646
  PAW double counting   =      1868.63994431    -1909.34378768
  entropy T*S    EENTRO =        -0.00000000
  eigenvalues    EBANDS =      -213.53237337
  atomic energy  EATOM  =      1814.56626534
  Solvation  Ediel_sol  =         0.00000000
  ---------------------------------------------------
  free energy    TOTEN  =        -8.06555466 eV

  energy without entropy =       -8.06555466  energy(sigma->0) =       -8.06555466


--------------------------------------------------------------------------------------------------------




----------------------------------------- Iteration    1(   5)  ---------------------------------------


     EDDAV:  cpu time    2.2814: real time    2.2819
       DOS:  cpu time    0.0012: real time    0.0015
    --------------------------------------------
      LOOP:  cpu time    2.2830: real time    2.2852

 eigenvalue-minimisations  : 10172
 total energy-change (2. order) :-0.8247810E-02  (-0.8247198E-02)
 number of electron      24.0000026 magnetization       2.0000046
 augmentation part       24.0000026 magnetization       2.0000046

 Free energy of the ion-electron system (eV)
  ---------------------------------------------------
  alpha Z        PSCENC =        16.10253336
  Ewald energy   TEWEN  =      4275.56302236
  -Hartree energ DENC   =     -5911.00686545
  -exchange      EXHF   =         0.00000000
  -V(xc)+E(xc)   XCENC  =        50.94570646
  PAW double counting   =      1868.63994431    -1909.34378768
  entropy T*S    EENTRO =        -0.00000000
  eigenvalues    EBANDS =      -213.54062118
  atomic energy  EATOM  =      1814.56626534
  Solvation  Ediel_sol  =         0.00000000
  ---------------------------------------------------
  free energy    TOTEN  =        -8.07380247 eV

  energy without entropy =       -8.07380247  energy(sigma->0) =       -8.07380247


--------------------------------------------------------------------------------------------------------




----------------------------------------- Iteration    1(   6)  ---------------------------------------


     EDDAV:  cpu time    2.1384: real time    2.1392
       DOS:  cpu time    0.0012: real time    0.0012
    --------------------------------------------
      LOOP:  cpu time    2.1407: real time    2.1422

 eigenvalue-minimisations  :  9404
 total energy-change (2. order) :-0.1529336E-03  (-0.1529314E-03)
 number of electron      24.0000026 magnetization       2.0000046
 augmentation part       24.0000026 magnetization       2.0000046

 Free energy of the ion-electron system (eV)
  ---------------------------------------------------
  alpha Z        PSCENC =        16.10253336
  Ewald energy   TEWEN  =      4275.56302236
  -Hartree energ DENC   =     -5911.00686545
  -exchange      EXHF   =         0.00000000
  -V(xc)+E(xc)   XCENC  =        50.94570646
  PAW double counting   =      1868.63994431    -1909.34378768
  entropy T*S    EENTRO =        -0.00000000
  eigenvalues    EBANDS =      -213.54077411
  atomic energy  EATOM  =      1814.56626534
  Solvation  Ediel_sol  =         0.00000000
  ---------------------------------------------------
  free energy    TOTEN  =        -8.07395540 eV

  energy without entropy =       -8.07395540  energy(sigma->0) =       -8.07395540


--------------------------------------------------------------------------------------------------------




----------------------------------------- Iteration    1(   7)  ---------------------------------------


     EDDAV:  cpu time    2.3995: real time    2.3997
       DOS:  cpu time    0.0012: real time    0.0012
    --------------------------------------------
      LOOP:  cpu time    2.4012: real time    2.4026

 eigenvalue-minimisations  : 10900
 total energy-change (2. order) :-0.9186527E-05  (-0.9186516E-05)
 number of electron      24.0000026 magnetization       2.0000046
 augmentation part       24.0000026 magnetization       2.0000046

 Free energy of the ion-electron system (eV)
  ---------------------------------------------------
  alpha Z        PSCENC =        16.10253336
  Ewald energy   TEWEN  =      4275.56302236
  -Hartree energ DENC   =     -5911.00686545
  -exchange      EXHF   =         0.00000000
  -V(xc)+E(xc)   XCENC  =        50.94570646
  PAW double counting   =      1868.63994431    -1909.34378768
  entropy T*S    EENTRO =        -0.00000000
  eigenvalues    EBANDS =      -213.54078330
  atomic energy  EATOM  =      1814.56626534
  Solvation  Ediel_sol  =         0.00000000
  ---------------------------------------------------
  free energy    TOTEN  =        -8.07396459 eV

  energy without entropy =       -8.07396459  energy(sigma->0) =       -8.07396459


--------------------------------------------------------------------------------------------------------




----------------------------------------- Iteration    1(   8)  ---------------------------------------


     EDDAV:  cpu time    1.9023: real time    1.9026
       DOS:  cpu time    0.0011: real time    0.0011
    --------------------------------------------
      LOOP:  cpu time    1.9038: real time    1.9054

 eigenvalue-minimisations  :  7872
 total energy-change (2. order) :-0.2815932E-07  (-0.2815738E-07)
 number of electron      24.0000026 magnetization       2.0000046
 augmentation part       24.0000026 magnetization       2.0000046

 Free energy of the ion-electron system (eV)
  ---------------------------------------------------
  alpha Z        PSCENC =        16.10253336
  Ewald energy   TEWEN  =      4275.56302236
  -Hartree energ DENC   =     -5911.00686545
  -exchange      EXHF   =         0.00000000
  -V(xc)+E(xc)   XCENC  =        50.94570646
  PAW double counting   =      1868.63994431    -1909.34378768
  entropy T*S    EENTRO =        -0.00000000
  eigenvalues    EBANDS =      -213.54078333
  atomic energy  EATOM  =      1814.56626534
  Solvation  Ediel_sol  =         0.00000000
  ---------------------------------------------------
  free energy    TOTEN  =        -8.07396462 eV

  energy without entropy =       -8.07396462  energy(sigma->0) =       -8.07396462


--------------------------------------------------------------------------------------------------------




 average (electrostatic) potential at core
  the test charge radii are     0.9791  1.0178
  (the norm of the test charge is              1.0000)
       1 -95.6276       2 -69.0522       3 -69.0522
 
 
 
 E-fermi :  -4.2323     XC(G=0):  -2.8375     alpha+bet : -2.2135


 spin component 1

 k-point     1 :       0.0000    0.0000    0.0000
  band No.  band energies     occupation 
      1     -19.0916      1.00000
      2     -18.3766      1.00000
      3      -9.4806      1.00000
      4      -9.4806      1.00000
      5      -8.9818      1.00000
      6      -8.0512      1.00000
      7      -8.0512      1.00000
      8      -7.1919      1.00000
      9      -5.5762      1.00000
     10      -4.9807      1.00000
     11      -4.9807      1.00000
     12      -4.4651      1.00000
     13      -4.4651      1.00000
     14       0.0728      0.00000
     15       1.4359      0.00000
     16       1.9394      0.00000
     17       2.0862      0.00000
     18       2.6391      0.00000
     19       3.1949      0.00000
     20       4.1931      0.00000

 k-point     2 :       0.0115    0.0115    0.0000
  band No.  band energies     occupation 
      1     -19.0891      1.00000
      2     -18.3756      1.00000
      3      -9.4808      1.00000
      4      -9.4802      1.00000
      5      -8.9789      1.00000
      6      -8.0526      1.00000
      7      -8.0512      1.00000
      8      -7.1940      1.00000
      9      -5.5734      1.00000
     10      -4.9991      1.00000
     11      -4.9861      1.00000
     12      -4.4791      1.00000
     13      -4.4660      1.00000
     14       0.0908      0.00000
     15       1.4548      0.00000
     16       1.9467      0.00000
     17       2.0915      0.00000
     18       2.6435      0.00000
     19       3.1997      0.00000
     20       4.1572      0.00000

 k-point     3 :       0.0230    0.0230    0.0000
  band No.  band energies     occupation 
      1     -19.0819      1.00000
      2     -18.3727      1.00000
      3      -9.4813      1.00000
      4      -9.4790      1.00000
      5      -8.9701      1.00000
      6      -8.0568      1.00000
      7      -8.0513      1.00000
      8      -7.2004      1.00000
      9      -5.5653      1.00000
     10      -5.0521      1.00000
     11      -5.0032      1.00000
     12      -4.5190      1.00000
     13      -4.4696      1.00000
     14       0.1436      0.00000
     15       1.5093      0.00000
     16       1.9692      0.00000
     17       2.1071      0.00000
     18       2.6562      0.00000
     19       3.2142      0.00000
     20       4.0908      0.00000

 k-point     4 :       0.0345    0.0345    0.0000
  band No.  band energies     occupation 
      1     -19.0698      1.00000
      2     -18.3678      1.00000
      3      -9.4820      1.00000
      4      -9.4769      1.00000
      5      -8.9556      1.00000
      6      -8.0638      1.00000
      7      -8.0516      1.00000
      8      -7.2111      1.00000
      9      -5.5524      1.00000
     10      -5.1337      1.00000
     11      -5.0344      1.00000
     12      -4.5790      1.00000
     13      -4.4788      1.00000
     14       0.2279      0.00000
     15       1.5930      0.00000
     16       2.0096      0.00000
     17       2.1323      0.00000
     18       2.6762      0.00000
     19       3.2380      0.00000
     20       4.0033      0.00000

 k-point     5 :       0.0460    0.0460    0.0000
  band No.  band energies     occupation 
      1     -19.0532      1.00000
      2     -18.3611      1.00000
      3      -9.4826      1.00000
      4      -9.4742      1.00000
      5      -8.9356      1.00000
      6      -8.0736      1.00000
      7      -8.0521      1.00000
      8      -7.2266      1.00000
      9      -5.5360      1.00000
     10      -5.2369      1.00000
     11      -5.0842      1.00000
     12      -4.6496      1.00000
     13      -4.4955      1.00000
     14       0.3389      0.00000
     15       1.6945      0.00000
     16       2.0735      0.00000
     17       2.1656      0.00000
     18       2.7019      0.00000
     19       3.2713      0.00000
     20       3.9071      0.00000

 k-point     6 :       0.0575    0.0575    0.0000
  band No.  band energies     occupation 
      1     -19.0320      1.00000
      2     -18.3528      1.00000
      3      -9.4829      1.00000
      4      -9.4710      1.00000
      5      -8.9103      1.00000
      6      -8.0862      1.00000
      7      -8.0531      1.00000
      8      -7.2471      1.00000
      9      -5.5188      1.00000
     10      -5.3551      1.00000
     11      -5.1564      1.00000
     12      -4.7200      1.00000
     13      -4.5212      1.00000
     14       0.4708      0.00000
     15       1.7992      0.00000
     16       2.1686      0.00000
     17       2.2044      0.00000
     18       2.7310      0.00000
     19       3.3135      0.00000
     20       3.8147      0.00000

 k-point     7 :       0.0690    0.0690    0.0000
  band No.  band energies     occupation 
      1     -19.0065      1.00000
      2     -18.3428      1.00000
      3      -9.4824      1.00000
      4      -9.4674      1.00000
      5      -8.8802      1.00000
      6      -8.1016      1.00000
      7      -8.0548      1.00000
      8      -7.2730      1.00000
      9      -5.5074      1.00000
     10      -5.4818      1.00000
     11      -5.2484      1.00000
     12      -4.7816      1.00000
     13      -4.5559      1.00000
     14       0.6178      0.00000
     15       1.8952      0.00000
     16       2.2441      0.00000
     17       2.2996      0.00000
     18       2.7615      0.00000
     19       3.3646      0.00000
     20       3.7399      0.00000

 k-point     8 :       0.0805    0.0805    0.0000
  band No.  band energies     occupation 
      1     -18.9769      1.00000
      2     -18.3315      1.00000
      3      -9.4808      1.00000
      4      -9.4636      1.00000
      5      -8.8456      1.00000
      6      -8.1197      1.00000
      7      -8.0577      1.00000
      8      -7.3044      1.00000
      9      -5.6115      1.00000
     10      -5.5249      1.00000
     11      -5.3357      1.00000
     12      -4.8319      1.00000
     13      -4.5994      1.00000
     14       0.7739      0.00000
     15       1.9805      0.00000
     16       2.2780      0.00000
     17       2.4610      0.00000
     18       2.7943      0.00000
     19       3.4241      0.00000
     20       3.6948      0.00000

 k-point     9 :       0.0920    0.0920    0.0000
  band No.  band energies     occupation 
      1     -18.9436      1.00000
      2     -18.3190      1.00000
      3      -9.4777      1.00000
      4      -9.4599      1.00000
      5      -8.8073      1.00000
      6      -8.1406      1.00000
      7      -8.0622      1.00000
      8      -7.3411      1.00000
      9      -5.7397      1.00000
     10      -5.6136      1.00000
     11      -5.3716      1.00000
     12      -4.8720      1.00000
     13      -4.6510      1.00000
     14       0.9334      0.00000
     15       2.0595      0.00000
     16       2.2977      0.00000
     17       2.6417      0.00000
     18       2.8353      0.00000
     19       3.4918      0.00000
     20       3.6871      0.00000

 k-point    10 :       0.1034    0.1034    0.0000
  band No.  band energies     occupation 
      1     -18.9069      1.00000
      2     -18.3054      1.00000
      3      -9.4726      1.00000
      4      -9.4564      1.00000
      5      -8.7660      1.00000
      6      -8.1644      1.00000
      7      -8.0689      1.00000
      8      -7.3824      1.00000
      9      -5.8627      1.00000
     10      -5.7528      1.00000
     11      -5.3729      1.00000
     12      -4.9027      1.00000
     13      -4.7097      1.00000
     14       1.0903      0.00000
     15       2.1362      0.00000
     16       2.2987      0.00000
     17       2.8319      0.00000
     18       2.8934      0.00000
     19       3.5676      0.00000
     20       3.7173      0.00000

 k-point    11 :       0.1149    0.1149    0.0000
  band No.  band energies     occupation 
      1     -18.8671      1.00000
      2     -18.2912      1.00000
      3      -9.4651      1.00000
      4      -9.4534      1.00000
      5      -8.7228      1.00000
      6      -8.1910      1.00000
      7      -8.0786      1.00000
      8      -7.4270      1.00000
      9      -5.9780      1.00000
     10      -5.9084      1.00000
     11      -5.3718      1.00000
     12      -4.9235      1.00000
     13      -4.7743      1.00000
     14       1.2373      0.00000
     15       2.2123      0.00000
     16       2.2870      0.00000
     17       2.9739      0.00000
     18       3.0247      0.00000
     19       3.6519      0.00000
     20       3.7800      0.00000

 k-point    12 :       0.1264    0.1264    0.0000
  band No.  band energies     occupation 
      1     -18.8247      1.00000
      2     -18.2765      1.00000
      3      -9.4548      1.00000
      4      -9.4511      1.00000
      5      -8.6790      1.00000
      6      -8.2205      1.00000
      7      -8.0919      1.00000
      8      -7.4725      1.00000
      9      -6.0843      1.00000
     10      -6.0677      1.00000
     11      -5.3809      1.00000
     12      -4.9331      1.00000
     13      -4.8432      1.00000
     14       1.3647      0.00000
     15       2.2789      0.00000
     16       2.2882      0.00000
     17       3.0764      0.00000
     18       3.2150      0.00000
     19       3.7460      0.00000
     20       3.8674      0.00000

 k-point    13 :       0.1379    0.1379    0.0000
  band No.  band energies     occupation 
      1     -18.7801      1.00000
      2     -18.2616      1.00000
      3      -9.4498      1.00000
      4      -9.4412      1.00000
      5      -8.6363      1.00000
      6      -8.2530      1.00000
      7      -8.1093      1.00000
      8      -7.5160      1.00000
      9      -6.2247      1.00000
     10      -6.1815      1.00000
     11      -5.4047      1.00000
     12      -4.9311      1.00000
     13      -4.9146      1.00000
     14       1.4596      0.00000
     15       2.2956      0.00000
     16       2.3632      0.00000
     17       3.1978      0.00000
     18       3.3990      0.00000
     19       3.8520      0.00000
     20       3.9717      0.00000

 k-point    14 :       0.1494    0.1494    0.0000
  band No.  band energies     occupation 
      1     -18.7338      1.00000
      2     -18.2467      1.00000
      3      -9.4496      1.00000
      4      -9.4243      1.00000
      5      -8.5971      1.00000
      6      -8.2884      1.00000
      7      -8.1301      1.00000
      8      -7.5546      1.00000
      9      -6.3757      1.00000
     10      -6.2707      1.00000
     11      -5.4440      1.00000
     12      -4.9864      1.00000
     13      -4.9195      1.00000
     14       1.5117      0.00000
     15       2.3544      0.00000
     16       2.4364      0.00000
     17       3.3351      0.00000
     18       3.5737      0.00000
     19       3.9736      0.00000
     20       4.0859      0.00000

 k-point    15 :       0.1609    0.1609    0.0000
  band No.  band energies     occupation 
      1     -18.6864      1.00000
      2     -18.2322      1.00000
      3      -9.4505      1.00000
      4      -9.4037      1.00000
      5      -8.5644      1.00000
      6      -8.3268      1.00000
      7      -8.1522      1.00000
      8      -7.5858      1.00000
      9      -6.5180      1.00000
     10      -6.3535      1.00000
     11      -5.4971      1.00000
     12      -5.0564      1.00000
     13      -4.9018      1.00000
     14       1.5232      0.00000
     15       2.4581      0.00000
     16       2.5071      0.00000
     17       3.4859      0.00000
     18       3.7376      0.00000
     19       4.1137      0.00000
     20       4.2025      0.00000

 k-point    16 :       0.1724    0.1724    0.0000
  band No.  band energies     occupation 
      1     -18.6384      1.00000
      2     -18.2184      1.00000
      3      -9.4525      1.00000
      4      -9.3795      1.00000
      5      -8.5419      1.00000
      6      -8.3678      1.00000
      7      -8.1717      1.00000
      8      -7.6088      1.00000
      9      -6.6494      1.00000
     10      -6.4316      1.00000
     11      -5.5617      1.00000
     12      -5.1220      1.00000
     13      -4.8817      1.00000
     14       1.5067      0.00000
     15       2.5749      0.00000
     16       2.5971      0.00000
     17       3.6485      0.00000
     18       3.8928      0.00000
     19       4.2724      0.00000
     20       4.3132      0.00000

 k-point    17 :       0.1839    0.1839    0.0000
  band No.  band energies     occupation 
      1     -18.5904      1.00000
      2     -18.2054      1.00000
      3      -9.4555      1.00000
      4      -9.3520      1.00000
      5      -8.5328      1.00000
      6      -8.4111      1.00000
      7      -8.1842      1.00000
      8      -7.6239      1.00000
      9      -6.7682      1.00000
     10      -6.5069      1.00000
     11      -5.6356      1.00000
     12      -5.1810      1.00000
     13      -4.8623      1.00000
     14       1.4756      0.00000
     15       2.6402      0.00000
     16       2.7597      0.00000
     17       3.8208      0.00000
     18       4.0449      0.00000
     19       4.4081      0.00000
     20       4.4458      0.00000

 k-point    18 :       0.1954    0.1954    0.0000
  band No.  band energies     occupation 
      1     -18.5430      1.00000
      2     -18.1935      1.00000
      3      -9.4589      1.00000
      4      -9.3216      1.00000
      5      -8.5378      1.00000
      6      -8.4558      1.00000
      7      -8.1874      1.00000
      8      -7.6325      1.00000
      9      -6.8733      1.00000
     10      -6.5804      1.00000
     11      -5.7173      1.00000
     12      -5.2312      1.00000
     13      -4.8459      1.00000
     14       1.4390      0.00000
     15       2.7042      0.00000
     16       2.9378      0.00000
     17       3.9997      0.00000
     18       4.1999      0.00000
     19       4.4797      0.00000
     20       4.6268      0.00000

 k-point    19 :       0.2069    0.2069    0.0000
  band No.  band energies     occupation 
      1     -18.4967      1.00000
      2     -18.1830      1.00000
      3      -9.4621      1.00000
      4      -9.2892      1.00000
      5      -8.5539      1.00000
      6      -8.5007      1.00000
      7      -8.1829      1.00000
      8      -7.6371      1.00000
      9      -6.9637      1.00000
     10      -6.6523      1.00000
     11      -5.8053      1.00000
     12      -5.2710      1.00000
     13      -4.8343      1.00000
     14       1.4020      0.00000
     15       2.7686      0.00000
     16       3.1260      0.00000
     17       4.1769      0.00000
     18       4.3620      0.00000
     19       4.5326      0.00000
     20       4.7796      0.00000

 k-point    20 :       0.2184    0.2184    0.0000
  band No.  band energies     occupation 
      1     -18.4521      1.00000
      2     -18.1740      1.00000
      3      -9.4643      1.00000
      4      -9.2564      1.00000
      5      -8.5758      1.00000
      6      -8.5439      1.00000
      7      -8.1748      1.00000
      8      -7.6402      1.00000
      9      -7.0388      1.00000
     10      -6.7216      1.00000
     11      -5.8986      1.00000
     12      -5.2993      1.00000
     13      -4.8288      1.00000
     14       1.3676      0.00000
     15       2.8356      0.00000
     16       3.3201      0.00000
     17       4.3251      0.00000
     18       4.5330      0.00000
     19       4.6003      0.00000
     20       4.8295      0.00000

 k-point    21 :       0.2299    0.2299    0.0000
  band No.  band energies     occupation 
      1     -18.4097      1.00000
      2     -18.1667      1.00000
      3      -9.4644      1.00000
      4      -9.2253      1.00000
      5      -8.5991      1.00000
      6      -8.5827      1.00000
      7      -8.1673      1.00000
      8      -7.6448      1.00000
      9      -7.0985      1.00000
     10      -6.7864      1.00000
     11      -5.9961      1.00000
     12      -5.3159      1.00000
     13      -4.8301      1.00000
     14       1.3374      0.00000
     15       2.9074      0.00000
     16       3.5153      0.00000
     17       4.4003      0.00000
     18       4.7104      0.00000
     19       4.7361      0.00000
     20       4.8667      0.00000

 k-point    22 :       0.2414    0.2414    0.0000
  band No.  band energies     occupation 
      1     -18.3700      1.00000
      2     -18.1612      1.00000
      3      -9.4615      1.00000
      4      -9.1990      1.00000
      5      -8.6204      1.00000
      6      -8.6138      1.00000
      7      -8.1637      1.00000
      8      -7.6535      1.00000
      9      -7.1424      1.00000
     10      -6.8438      1.00000
     11      -6.0971      1.00000
     12      -5.3210      1.00000
     13      -4.8386      1.00000
     14       1.3123      0.00000
     15       2.9857      0.00000
     16       3.7035      0.00000
     17       4.4248      0.00000
     18       4.8697      0.00000
     19       4.9203      0.00000
     20       4.9497      0.00000

 k-point    23 :       0.2529    0.2529    0.0000
  band No.  band energies     occupation 
      1     -18.3335      1.00000
      2     -18.1576      1.00000
      3      -9.4545      1.00000
      4      -9.1809      1.00000
      5      -8.6379      1.00000
      6      -8.6333      1.00000
      7      -8.1667      1.00000
      8      -7.6681      1.00000
      9      -7.1708      1.00000
     10      -6.8909      1.00000
     11      -6.2005      1.00000
     12      -5.3155      1.00000
     13      -4.8543      1.00000
     14       1.2929      0.00000
     15       3.0717      0.00000
     16       3.8677      0.00000
     17       4.4472      0.00000
     18       4.9622      0.00000
     19       5.0716      0.00000
     20       5.1189      0.00000

 k-point    24 :       0.2644    0.2644    0.0000
  band No.  band energies     occupation 
      1     -18.3004      1.00000
      2     -18.1559      1.00000
      3      -9.4428      1.00000
      4      -9.1741      1.00000
      5      -8.6503      1.00000
      6      -8.6384      1.00000
      7      -8.1789      1.00000
      8      -7.6885      1.00000
      9      -7.1834      1.00000
     10      -6.9258      1.00000
     11      -6.3058      1.00000
     12      -5.3006      1.00000
     13      -4.8769      1.00000
     14       1.2794      0.00000
     15       3.1657      0.00000
     16       3.9763      0.00000
     17       4.5060      0.00000
     18       5.0468      0.00000
     19       5.1144      0.00000
     20       5.3038      0.00000

 k-point    25 :       0.2759    0.2759    0.0000
  band No.  band energies     occupation 
      1     -18.2710      1.00000
      2     -18.1561      1.00000
      3      -9.4261      1.00000
      4      -9.1794      1.00000
      5      -8.6569      1.00000
      6      -8.6284      1.00000
      7      -8.2024      1.00000
      8      -7.7124      1.00000
      9      -7.1803      1.00000
     10      -6.9478      1.00000
     11      -6.4120      1.00000
     12      -5.2778      1.00000
     13      -4.9057      1.00000
     14       1.2718      0.00000
     15       3.2670      0.00000
     16       4.0072      0.00000
     17       4.6211      0.00000
     18       5.1355      0.00000
     19       5.1384      0.00000
     20       5.4629      0.00000

 k-point    26 :       0.2874    0.2874    0.0000
  band No.  band energies     occupation 
      1     -18.2455      1.00000
      2     -18.1581      1.00000
      3      -9.4047      1.00000
      4      -9.1949      1.00000
      5      -8.6570      1.00000
      6      -8.6058      1.00000
      7      -8.2387      1.00000
      8      -7.7362      1.00000
      9      -7.1616      1.00000
     10      -6.9582      1.00000
     11      -6.5185      1.00000
     12      -5.2486      1.00000
     13      -4.9399      1.00000
     14       1.2695      0.00000
     15       3.3735      0.00000
     16       3.9800      0.00000
     17       4.7659      0.00000
     18       5.1803      0.00000
     19       5.2327      0.00000
     20       5.5526      0.00000

 k-point    27 :       0.2989    0.2989    0.0000
  band No.  band energies     occupation 
      1     -18.2239      1.00000
      2     -18.1619      1.00000
      3      -9.3794      1.00000
      4      -9.2174      1.00000
      5      -8.6504      1.00000
      6      -8.5743      1.00000
      7      -8.2876      1.00000
      8      -7.7563      1.00000
      9      -7.1274      1.00000
     10      -6.9590      1.00000
     11      -6.6246      1.00000
     12      -5.2147      1.00000
     13      -4.9781      1.00000
     14       1.2716      0.00000
     15       3.4813      0.00000
     16       3.9243      0.00000
     17       4.8994      0.00000
     18       5.2613      0.00000
     19       5.3145      0.00000
     20       5.5673      0.00000

 k-point    28 :       0.3103    0.3103    0.0000
  band No.  band energies     occupation 
      1     -18.2063      1.00000
      2     -18.1673      1.00000
      3      -9.3517      1.00000
      4      -9.2435      1.00000
      5      -8.6368      1.00000
      6      -8.5380      1.00000
      7      -8.3467      1.00000
      8      -7.7708      1.00000
      9      -7.0784      1.00000
     10      -6.9521      1.00000
     11      -6.7297      1.00000
     12      -5.1777      1.00000
     13      -5.0188      1.00000
     14       1.2765      0.00000
     15       3.5842      0.00000
     16       3.8587      0.00000
     17       4.9974      0.00000
     18       5.3527      0.00000
     19       5.3733      0.00000
     20       5.5750      0.00000

 k-point    29 :       0.3218    0.3218    0.0000
  band No.  band energies     occupation 
      1     -18.1924      1.00000
      2     -18.1741      1.00000
      3      -9.3234      1.00000
      4      -9.2705      1.00000
      5      -8.6182      1.00000
      6      -8.5001      1.00000
      7      -8.4100      1.00000
      8      -7.7792      1.00000
      9      -7.0161      1.00000
     10      -6.9391      1.00000
     11      -6.8327      1.00000
     12      -5.1390      1.00000
     13      -5.0602      1.00000
     14       1.2820      0.00000
     15       3.6735      0.00000
     16       3.7941      0.00000
     17       5.0579      0.00000
     18       5.3433      0.00000
     19       5.4879      0.00000
     20       5.5991      0.00000

 k-point    30 :       0.3333    0.3333    0.0000
  band No.  band energies     occupation 
      1     -18.1821      1.00000
      2     -18.1821      1.00000
      3      -9.2967      1.00000
      4      -9.2967      1.00000
      5      -8.6056      1.00000
      6      -8.4628      1.00000
      7      -8.4627      1.00000
      8      -7.7819      1.00000
      9      -6.9541      1.00000
     10      -6.9212      1.00000
     11      -6.9212      1.00000
     12      -5.1002      1.00000
     13      -5.1002      1.00000
     14       1.2846      0.00000
     15       3.7384      0.00000
     16       3.7384      0.00000
     17       5.0800      0.00000
     18       5.3323      0.00000
     19       5.5747      0.00000
     20       5.5790      0.00000

 k-point    31 :       0.3333    0.3333    0.0000
  band No.  band energies     occupation 
      1     -18.1821      1.00000
      2     -18.1821      1.00000
      3      -9.2967      1.00000
      4      -9.2967      1.00000
      5      -8.6056      1.00000
      6      -8.4628      1.00000
      7      -8.4627      1.00000
      8      -7.7819      1.00000
      9      -6.9541      1.00000
     10      -6.9212      1.00000
     11      -6.9212      1.00000
     12      -5.1002      1.00000
     13      -5.1002      1.00000
     14       1.2846      0.00000
     15       3.7384      0.00000
     16       3.7384      0.00000
     17       5.0800      0.00000
     18       5.3323      0.00000
     19       5.5747      0.00000
     20       5.5748      0.00000

 k-point    32 :       0.3391    0.3218    0.0000
  band No.  band energies     occupation 
      1     -18.1865      1.00000
      2     -18.1782      1.00000
      3      -9.3090      1.00000
      4      -9.2845      1.00000
      5      -8.6115      1.00000
      6      -8.4741      1.00000
      7      -8.4447      1.00000
      8      -7.7812      1.00000
      9      -6.9887      1.00000
     10      -6.9106      1.00000
     11      -6.8953      1.00000
     12      -5.1189      1.00000
     13      -5.0811      1.00000
     14       1.2837      0.00000
     15       3.7159      0.00000
     16       3.7584      0.00000
     17       5.0736      0.00000
     18       5.3359      0.00000
     19       5.5307      0.00000
     20       5.6033      0.00000

 k-point    33 :       0.3448    0.3103    0.0000
  band No.  band energies     occupation 
      1     -18.1912      1.00000
      2     -18.1751      1.00000
      3      -9.3207      1.00000
      4      -9.2734      1.00000
      5      -8.6301      1.00000
      6      -8.4706      1.00000
      7      -8.4271      1.00000
      8      -7.7793      1.00000
      9      -7.0364      1.00000
     10      -6.8989      1.00000
     11      -6.8536      1.00000
     12      -5.1362      1.00000
     13      -5.0625      1.00000
     14       1.2805      0.00000
     15       3.6978      0.00000
     16       3.7688      0.00000
     17       5.0533      0.00000
     18       5.3454      0.00000
     19       5.4704      0.00000
     20       5.6226      0.00000

 k-point    34 :       0.3506    0.2989    0.0000
  band No.  band energies     occupation 
      1     -18.1960      1.00000
      2     -18.1728      1.00000
      3      -9.3318      1.00000
      4      -9.2636      1.00000
      5      -8.6579      1.00000
      6      -8.4556      1.00000
      7      -8.4101      1.00000
      8      -7.7761      1.00000
      9      -7.0844      1.00000
     10      -6.8860      1.00000
     11      -6.8095      1.00000
     12      -5.1518      1.00000
     13      -5.0444      1.00000
     14       1.2745      0.00000
     15       3.6848      0.00000
     16       3.7690      0.00000
     17       5.0180      0.00000
     18       5.3416      0.00000
     19       5.4181      0.00000
     20       5.6347      0.00000

 k-point    35 :       0.3563    0.2874    0.0000
  band No.  band energies     occupation 
      1     -18.2010      1.00000
      2     -18.1711      1.00000
      3      -9.3420      1.00000
      4      -9.2552      1.00000
      5      -8.6903      1.00000
      6      -8.4337      1.00000
      7      -8.3937      1.00000
      8      -7.7717      1.00000
      9      -7.1317      1.00000
     10      -6.8719      1.00000
     11      -6.7642      1.00000
     12      -5.1653      1.00000
     13      -5.0269      1.00000
     14       1.2652      0.00000
     15       3.6774      0.00000
     16       3.7589      0.00000
     17       4.9677      0.00000
     18       5.2747      0.00000
     19       5.4272      0.00000
     20       5.6415      0.00000

 k-point    36 :       0.3621    0.2759    0.0000
  band No.  band energies     occupation 
      1     -18.2061      1.00000
      2     -18.1700      1.00000
      3      -9.3515      1.00000
      4      -9.2482      1.00000
      5      -8.7245      1.00000
      6      -8.4076      1.00000
[...]
     19       3.3938      0.00000
     20       3.8898      0.00000

 k-point    84 :       0.1034    0.0000    0.0000
  band No.  band energies     occupation 
      1     -18.8497      1.00000
      2     -18.1565      1.00000
      3      -8.4927      1.00000
      4      -7.2825      1.00000
      5      -7.1520      1.00000
      6      -6.4975      1.00000
      7      -6.0439      1.00000
      8      -5.8639      1.00000
      9      -5.2515      1.00000
     10      -5.1293      1.00000
     11      -4.8687      1.00000
     12      -2.4030      0.00000
     13      -2.2125      0.00000
     14       0.6721      0.00000
     15       1.9021      0.00000
     16       2.2521      0.00000
     17       2.2991      0.00000
     18       2.8094      0.00000
     19       3.3482      0.00000
     20       3.9375      0.00000

 k-point    85 :       0.0862    0.0000    0.0000
  band No.  band energies     occupation 
      1     -18.8692      1.00000
      2     -18.1660      1.00000
      3      -8.5174      1.00000
      4      -7.2496      1.00000
      5      -7.1594      1.00000
      6      -6.4657      1.00000
      7      -5.9862      1.00000
      8      -5.8452      1.00000
      9      -5.2779      1.00000
     10      -5.0387      1.00000
     11      -4.8434      1.00000
     12      -2.3518      0.00000
     13      -2.2079      0.00000
     14       0.5529      0.00000
     15       1.8198      0.00000
     16       2.1681      0.00000
     17       2.2451      0.00000
     18       2.7796      0.00000
     19       3.3091      0.00000
     20       4.0046      0.00000

 k-point    86 :       0.0690    0.0000    0.0000
  band No.  band energies     occupation 
      1     -18.8854      1.00000
      2     -18.1739      1.00000
      3      -8.5380      1.00000
      4      -7.2229      1.00000
      5      -7.1655      1.00000
      6      -6.4409      1.00000
      7      -5.9310      1.00000
      8      -5.8293      1.00000
      9      -5.3085      1.00000
     10      -4.9554      1.00000
     11      -4.8225      1.00000
     12      -2.3026      0.00000
     13      -2.2038      0.00000
     14       0.4481      0.00000
     15       1.7306      0.00000
     16       2.0969      0.00000
     17       2.2085      0.00000
     18       2.7535      0.00000
     19       3.2767      0.00000
     20       4.0782      0.00000

 k-point    87 :       0.0517    0.0000    0.0000
  band No.  band energies     occupation 
      1     -18.8981      1.00000
      2     -18.1802      1.00000
      3      -8.5543      1.00000
      4      -7.2025      1.00000
      5      -7.1703      1.00000
      6      -6.4225      1.00000
      7      -5.8807      1.00000
      8      -5.8165      1.00000
      9      -5.3401      1.00000
     10      -4.8846      1.00000
     11      -4.8062      1.00000
     12      -2.2591      0.00000
     13      -2.2003      0.00000
     14       0.3616      0.00000
     15       1.6456      0.00000
     16       2.0473      0.00000
     17       2.1797      0.00000
     18       2.7316      0.00000
     19       3.2513      0.00000
     20       4.1462      0.00000

 k-point    88 :       0.0345    0.0000    0.0000
  band No.  band energies     occupation 
      1     -18.9073      1.00000
      2     -18.1847      1.00000
      3      -8.5661      1.00000
      4      -7.1880      1.00000
      5      -7.1738      1.00000
      6      -6.4098      1.00000
      7      -5.8387      1.00000
      8      -5.8071      1.00000
      9      -5.3690      1.00000
     10      -4.8305      1.00000
     11      -4.7944      1.00000
     12      -2.2249      0.00000
     13      -2.1977      0.00000
     14       0.2970      0.00000
     15       1.5764      0.00000
     16       2.0154      0.00000
     17       2.1588      0.00000
     18       2.7151      0.00000
     19       3.2330      0.00000
     20       4.1985      0.00000

 k-point    89 :       0.0172    0.0000    0.0000
  band No.  band energies     occupation 
      1     -18.9128      1.00000
      2     -18.1874      1.00000
      3      -8.5732      1.00000
      4      -7.1794      1.00000
      5      -7.1759      1.00000
      6      -6.4024      1.00000
      7      -5.8099      1.00000
      8      -5.8014      1.00000
      9      -5.3901      1.00000
     10      -4.7966      1.00000
     11      -4.7874      1.00000
     12      -2.2030      0.00000
     13      -2.1961      0.00000
     14       0.2570      0.00000
     15       1.5316      0.00000
     16       1.9974      0.00000
     17       2.1460      0.00000
     18       2.7049      0.00000
     19       3.2220      0.00000
     20       4.2299      0.00000

 k-point    90 :       0.0000    0.0000    0.0000
  band No.  band energies     occupation 
      1     -18.9146      1.00000
      2     -18.1884      1.00000
      3      -8.5756      1.00000
      4      -7.1766      1.00000
      5      -7.1765      1.00000
      6      -6.4000      1.00000
      7      -5.7995      1.00000
      8      -5.7995      1.00000
      9      -5.3979      1.00000
     10      -4.7850      1.00000
     11      -4.7850      1.00000
     12      -2.1955      0.00000
     13      -2.1955      0.00000
     14       0.2434      0.00000
     15       1.5161      0.00000
     16       1.9916      0.00000
     17       2.1417      0.00000
     18       2.7014      0.00000
     19       3.2183      0.00000
     20       4.2399      0.00000


--------------------------------------------------------------------------------------------------------


 soft charge-density along one line, spin component           1
         0         1         2         3         4         5         6         7         8         9
 total charge-density along one line
 
 soft charge-density along one line, spin component           2
         0         1         2         3         4         5         6         7         8         9
 total charge-density along one line
 
 pseudopotential strength for first ion, spin component:           1
-12.452  -0.000  -0.000  -0.397  -0.000 -12.707  -0.000  -0.000
 -0.000 -12.721  -0.000   0.000  -0.397  -0.000 -12.967  -0.000
 -0.000  -0.000 -12.164  -0.000   0.000  -0.000  -0.000 -12.430
 -0.397   0.000  -0.000 -12.721  -0.000  -0.383   0.000  -0.000
 -0.000  -0.397   0.000  -0.000 -12.452  -0.000  -0.383   0.000
-12.707  -0.000  -0.000  -0.383  -0.000 -12.929  -0.000  -0.000
 -0.000 -12.967  -0.000   0.000  -0.383  -0.000 -13.179  -0.000
 -0.000  -0.000 -12.430  -0.000   0.000  -0.000  -0.000 -12.661
 -0.383   0.000  -0.000 -12.967  -0.000  -0.370   0.000  -0.000
 -0.000  -0.383   0.000  -0.000 -12.707  -0.000  -0.370   0.000
 -0.000   0.000  -0.001   0.000   0.000  -0.000   0.000  -0.001
 -0.000   0.000  -0.002   0.000   0.000  -0.000   0.000  -0.002
  0.000  -0.000  -0.000   0.000  -0.000   0.000  -0.000  -0.000
  0.000   0.000   0.000   0.000   0.000   0.000   0.000   0.000
  0.000   0.000  -0.000   0.000   0.000   0.000   0.000  -0.000
  0.000  -0.000  -0.000   0.000  -0.000   0.000  -0.000  -0.000
  0.000   0.000   0.000   0.000   0.000   0.000   0.000   0.000
  0.000   0.000  -0.000   0.000   0.000   0.000   0.000  -0.000
 pseudopotential strength for first ion, spin component:           2
-10.189  -0.000  -0.000   1.525  -0.000 -10.503  -0.000  -0.000
 -0.000  -9.115  -0.000  -0.000   1.525  -0.000  -9.432  -0.000
 -0.000  -0.000 -11.266  -0.000   0.000  -0.000  -0.000 -11.577
  1.525  -0.000  -0.000  -9.115  -0.000   1.520  -0.000  -0.000
 -0.000   1.525   0.000  -0.000 -10.189  -0.000   1.520   0.000
-10.503  -0.000  -0.000   1.520  -0.000 -10.770  -0.000  -0.000
 -0.000  -9.432  -0.000  -0.000   1.520  -0.000  -9.692  -0.000
 -0.000  -0.000 -11.577  -0.000   0.000  -0.000  -0.000 -11.852
  1.520  -0.000  -0.000  -9.432  -0.000   1.530  -0.000  -0.000
 -0.000   1.520   0.000  -0.000 -10.503  -0.000   1.530   0.000
 -0.000   0.000  -0.001   0.000   0.000  -0.000   0.000  -0.001
 -0.000   0.000  -0.001   0.000   0.000  -0.000   0.000  -0.001
  0.000  -0.000  -0.000   0.000  -0.000   0.000  -0.000  -0.000
  0.000   0.000   0.000   0.000   0.000   0.000   0.000   0.000
  0.000   0.000  -0.000   0.000   0.000   0.000   0.000  -0.000
  0.000  -0.000  -0.000   0.000  -0.000   0.000  -0.000  -0.000
  0.000   0.000   0.000   0.000   0.000   0.000   0.000   0.000
  0.000   0.000  -0.000   0.000   0.000   0.000   0.000  -0.000
 total augmentation occupancy for first ion, spin component:           1
  1.800   0.000   0.000   0.000   0.000   0.000   0.000   0.000   0.000   0.000   0.000   0.000   0.000   0.000   0.000   0.000
  0.000   1.800   0.000   0.000   0.000   0.000   0.000   0.000   0.000   0.000   0.000   0.000   0.000   0.000   0.000   0.000
  0.000   0.000   1.800   0.000   0.000   0.000   0.000   0.000   0.000   0.000   0.000   0.000   0.000   0.000   0.000   0.000
  0.000   0.000   0.000   1.800   0.000   0.000   0.000   0.000   0.000   0.000   0.000   0.000   0.000   0.000   0.000   0.000
  0.000   0.000   0.000   0.000   1.800   0.000   0.000   0.000   0.000   0.000   0.000   0.000   0.000   0.000   0.000   0.000
  0.000   0.000   0.000   0.000   0.000   0.000   0.000   0.000   0.000   0.000   0.000   0.000   0.000   0.000   0.000   0.000
  0.000   0.000   0.000   0.000   0.000   0.000   0.000   0.000   0.000   0.000   0.000   0.000   0.000   0.000   0.000   0.000
  0.000   0.000   0.000   0.000   0.000   0.000   0.000   0.000   0.000   0.000   0.000   0.000   0.000   0.000   0.000   0.000
  0.000   0.000   0.000   0.000   0.000   0.000   0.000   0.000   0.000   0.000   0.000   0.000   0.000   0.000   0.000   0.000
  0.000   0.000   0.000   0.000   0.000   0.000   0.000   0.000   0.000   0.000   0.000   0.000   0.000   0.000   0.000   0.000
  0.000   0.000   0.000   0.000   0.000   0.000   0.000   0.000   0.000   0.000   1.000   0.000   0.000   0.000   0.000   0.000
  0.000   0.000   0.000   0.000   0.000   0.000   0.000   0.000   0.000   0.000   0.000   0.000   0.000   0.000   0.000   0.000
  0.000   0.000   0.000   0.000   0.000   0.000   0.000   0.000   0.000   0.000   0.000   0.000   0.000   0.000   0.000   0.000
  0.000   0.000   0.000   0.000   0.000   0.000   0.000   0.000   0.000   0.000   0.000   0.000   0.000   0.000   0.000   0.000
  0.000   0.000   0.000   0.000   0.000   0.000   0.000   0.000   0.000   0.000   0.000   0.000   0.000   0.000   0.000   0.000
  0.000   0.000   0.000   0.000   0.000   0.000   0.000   0.000   0.000   0.000   0.000   0.000   0.000   0.000   0.000   0.000
  0.000   0.000   0.000   0.000   0.000   0.000   0.000   0.000   0.000   0.000   0.000   0.000   0.000   0.000   0.000   0.000
  0.000   0.000   0.000   0.000   0.000   0.000   0.000   0.000   0.000   0.000   0.000   0.000   0.000   0.000   0.000   0.000
 total augmentation occupancy for first ion, spin component:           2
  0.180   0.000   0.000   0.000   0.000   0.000   0.000   0.000   0.000   0.000   0.000   0.000   0.000   0.000   0.000   0.000
  0.000   0.180   0.000   0.000   0.000   0.000   0.000   0.000   0.000   0.000   0.000   0.000   0.000   0.000   0.000   0.000
  0.000   0.000   0.180   0.000   0.000   0.000   0.000   0.000   0.000   0.000   0.000   0.000   0.000   0.000   0.000   0.000
  0.000   0.000   0.000   0.180   0.000   0.000   0.000   0.000   0.000   0.000   0.000   0.000   0.000   0.000   0.000   0.000
  0.000   0.000   0.000   0.000   0.180   0.000   0.000   0.000   0.000   0.000   0.000   0.000   0.000   0.000   0.000   0.000
  0.000   0.000   0.000   0.000   0.000   0.000   0.000   0.000   0.000   0.000   0.000   0.000   0.000   0.000   0.000   0.000
  0.000   0.000   0.000   0.000   0.000   0.000   0.000   0.000   0.000   0.000   0.000   0.000   0.000   0.000   0.000   0.000
  0.000   0.000   0.000   0.000   0.000   0.000   0.000   0.000   0.000   0.000   0.000   0.000   0.000   0.000   0.000   0.000
  0.000   0.000   0.000   0.000   0.000   0.000   0.000   0.000   0.000   0.000   0.000   0.000   0.000   0.000   0.000   0.000
  0.000   0.000   0.000   0.000   0.000   0.000   0.000   0.000   0.000   0.000   0.000   0.000   0.000   0.000   0.000   0.000
  0.000   0.000   0.000   0.000   0.000   0.000   0.000   0.000   0.000   0.000   0.100   0.000   0.000   0.000   0.000   0.000
  0.000   0.000   0.000   0.000   0.000   0.000   0.000   0.000   0.000   0.000   0.000   0.000   0.000   0.000   0.000   0.000
  0.000   0.000   0.000   0.000   0.000   0.000   0.000   0.000   0.000   0.000   0.000   0.000   0.000   0.000   0.000   0.000
  0.000   0.000   0.000   0.000   0.000   0.000   0.000   0.000   0.000   0.000   0.000   0.000   0.000   0.000   0.000   0.000
  0.000   0.000   0.000   0.000   0.000   0.000   0.000   0.000   0.000   0.000   0.000   0.000   0.000   0.000   0.000   0.000
  0.000   0.000   0.000   0.000   0.000   0.000   0.000   0.000   0.000   0.000   0.000   0.000   0.000   0.000   0.000   0.000
  0.000   0.000   0.000   0.000   0.000   0.000   0.000   0.000   0.000   0.000   0.000   0.000   0.000   0.000   0.000   0.000
  0.000   0.000   0.000   0.000   0.000   0.000   0.000   0.000   0.000   0.000   0.000   0.000   0.000   0.000   0.000   0.000


------------------------ aborting loop because EDIFF is reached ----------------------------------------


 


 total charge     
 
# of ion     s       p       d       tot
----------------------------------------
  1        0.325   0.316   8.209   8.850
  2        1.610   3.249   0.021   4.880
  3        1.610   3.249   0.021   4.880
------------------------------------------------
tot        3.545   6.814   8.250  18.609
 


 magnetization (x)
 
# of ion     s       p       d       tot
----------------------------------------
  1        0.002   0.000   1.542   1.544
  2        0.010   0.167   0.001   0.177
  3        0.010   0.167   0.001   0.177
------------------------------------------------
tot        0.022   0.334   1.543   1.898
 
    CHARGE:  cpu time    0.1152: real time    0.1153
    FORLOC:  cpu time    0.0009: real time    0.0009
    FORNL :  cpu time    0.4536: real time    0.4536
    STRESS:  cpu time    0.9863: real time    0.9863
    FORCOR:  cpu time    0.0269: real time    0.0269
    FORHAR:  cpu time    0.0027: real time    0.0030
    OFIELD:  cpu time    0.0001: real time    0.0001

  FORCE on cell =-STRESS in cart. coord.  units (eV):
  Direction    XX          YY          ZZ          XY          YZ          ZX
  --------------------------------------------------------------------------------------
  Alpha Z    16.10253    16.10253    16.10253
  Ewald    5251.66956  5251.66900 -6227.77573     0.00046     0.00021     0.00032
  Hartree  5639.14409  5639.14417 -5366.00966    -0.00007    -0.00004    -0.00008
  E(xc)    -107.19415  -107.19417  -107.42845    -0.00002     0.00000    -0.00000
  Local  -11329.67996-11329.67983 11152.00080    -0.00054    -0.00012    -0.00014
  n-local    90.64004    91.06177    90.48300    -0.75271    -0.00805    -0.08337
  augment   166.15390   166.15411   166.44662     0.00014    -0.00001    -0.00002
  Kinetic   272.85190   276.16681   276.94810    -4.22855    -0.19893    -0.46088
  Fock        0.00000     0.00000     0.00000     0.00000     0.00000     0.00000
  -------------------------------------------------------------------------------------
  Total       1.55616     1.55616     0.76721     0.00000     0.00000     0.00000
  in kB       9.22225     9.22225     4.54673     0.00000     0.00000     0.00000
  external pressure =        7.66 kB  Pullay stress =        0.00 kB


 VOLUME and BASIS-vectors are now :
 -----------------------------------------------------------------------------
  energy-cutoff  :      500.00
  volume of cell :      270.35
      direct lattice vectors                 reciprocal lattice vectors
     3.700000048  0.000000000  0.000000000     0.270270267  0.156040563  0.000000000
    -1.849999359  3.204293869  0.000000000     0.000000000  0.312081239  0.000000000
     0.000000000  0.000000000 22.803043365     0.000000000  0.000000000  0.043853795

  length of vectors
     3.700000048  3.699999571 22.803043365     0.312081199  0.312081239  0.043853795


 FORCES acting on ions
    electron-ion (+dipol)            ewald-force                    non-local-force                 convergence-correction
 -----------------------------------------------------------------------------------------------
   -.224E-05 -.123E-05 0.104E-09   -.113E-04 -.626E-05 -.339E-10   0.331E-23 0.000E+00 0.000E+00   0.867E-05 0.479E-05 0.511E-10
   0.120E-02 0.681E-03 -.662E+03   0.116E-03 0.762E-04 0.664E+03   -.694E-17 0.694E-17 -.187E+01   -.103E-04 -.568E-05 -.264E-01
   -.110E-02 -.624E-03 0.662E+03   -.105E-03 -.700E-04 -.664E+03   0.347E-17 -.694E-17 0.187E+01   -.899E-05 -.495E-05 0.264E-01
 -----------------------------------------------------------------------------------------------
   0.998E-04 0.551E-04 0.629E-09   -.151E-13 -.531E-14 0.000E+00   -.347E-17 0.000E+00 0.000E+00   -.106E-04 -.584E-05 0.916E-10
 
 
 POSITION                                       TOTAL-FORCE (eV/Angst)
 -----------------------------------------------------------------------------------
      0.00000      0.00000     11.40152         0.000000      0.000000     -0.000000
      1.85000      1.06810     12.82906        -0.000000      0.000000      0.001565
      0.00000      2.13620      9.97398         0.000000     -0.000000     -0.001565
 -----------------------------------------------------------------------------------
    total drift:                                0.000089      0.000049      0.000000


--------------------------------------------------------------------------------------------------------



  FREE ENERGIE OF THE ION-ELECTRON SYSTEM (eV)
  ---------------------------------------------------
  free  energy   TOTEN  =        -8.07396462 eV

  energy  without entropy=       -8.07396462  energy(sigma->0) =       -8.07396462
 


--------------------------------------------------------------------------------------------------------


    POTLOK:  cpu time    0.0315: real time    0.0315


--------------------------------------------------------------------------------------------------------


     LOOP+:  cpu time   18.6079: real time   18.6274
    4ORBIT:  cpu time    0.0000: real time    0.0000
 


 total charge     
 
# of ion     s       p       d       tot
----------------------------------------
  1        0.325   0.316   8.209   8.850
  2        1.610   3.249   0.021   4.880
  3        1.610   3.249   0.021   4.880
------------------------------------------------
tot        3.545   6.814   8.250  18.609
 


 magnetization (x)
 
# of ion     s       p       d       tot
----------------------------------------
  1        0.002   0.000   1.542   1.544
  2        0.010   0.167   0.001   0.177
  3        0.010   0.167   0.001   0.177
------------------------------------------------
tot        0.022   0.334   1.543   1.898
 

 total amount of memory used by VASP on root node    81018. kBytes
========================================================================

   base      :      30000. kBytes
   nonl-proj :      30434. kBytes
   fftplans  :        957. kBytes
   grid      :       2432. kBytes
   one-center:         31. kBytes
   wavefun   :      17164. kBytes
 
  
  
 General timing and accounting informations for this job:
 ========================================================
  
                  Total CPU time used (sec):       21.438
                            User time (sec):       21.263
                          System time (sec):        0.175
                         Elapsed time (sec):       21.481
  
                   Maximum memory used (kb):       93380.
                   Average memory used (kb):           0.
  
                          Minor page faults:        21218
                          Major page faults:            0
                 Voluntary context switches:          427
